

     ************************************************************************
     *************** Dalton - An Electronic Structure Program ***************
     ************************************************************************

    This is output from DALTON release Dalton2021.alpha (2021)
         ( Web site: http://daltonprogram.org )

   ----------------------------------------------------------------------------

    NOTE:
     
    Dalton is an experimental code for the evaluation of molecular
    properties using (MC)SCF, DFT, CI, and CC wave functions.
    The authors accept no responsibility for the performance of
    the code or for the correctness of the results.
     
    The code (in whole or part) is provided under a licence and
    is not to be reproduced for further distribution without
    the written permission of the authors or their representatives.
     
    See the home page "http://daltonprogram.org" for further information.
     
    If results obtained with this code are published,
    the appropriate citations would be both of:
     
       K. Aidas, C. Angeli, K. L. Bak, V. Bakken, R. Bast,
       L. Boman, O. Christiansen, R. Cimiraglia, S. Coriani,
       P. Dahle, E. K. Dalskov, U. Ekstroem,
       T. Enevoldsen, J. J. Eriksen, P. Ettenhuber, B. Fernandez,
       L. Ferrighi, H. Fliegl, L. Frediani, K. Hald, A. Halkier,
       C. Haettig, H. Heiberg, T. Helgaker, A. C. Hennum,
       H. Hettema, E. Hjertenaes, S. Hoest, I.-M. Hoeyvik,
       M. F. Iozzi, B. Jansik, H. J. Aa. Jensen, D. Jonsson,
       P. Joergensen, J. Kauczor, S. Kirpekar,
       T. Kjaergaard, W. Klopper, S. Knecht, R. Kobayashi, H. Koch,
       J. Kongsted, A. Krapp, K. Kristensen, A. Ligabue,
       O. B. Lutnaes, J. I. Melo, K. V. Mikkelsen, R. H. Myhre,
       C. Neiss, C. B. Nielsen, P. Norman, J. Olsen,
       J. M. H. Olsen, A. Osted, M. J. Packer, F. Pawlowski,
       T. B. Pedersen, P. F. Provasi, S. Reine, Z. Rinkevicius,
       T. A. Ruden, K. Ruud, V. Rybkin, P. Salek, C. C. M. Samson,
       A. Sanchez de Meras, T. Saue, S. P. A. Sauer,
       B. Schimmelpfennig, K. Sneskov, A. H. Steindal,
       K. O. Sylvester-Hvid, P. R. Taylor, A. M. Teale,
       E. I. Tellgren, D. P. Tew, A. J. Thorvaldsen, L. Thoegersen,
       O. Vahtras, M. A. Watson, D. J. D. Wilson, M. Ziolkowski
       and H. Agren,
       "The Dalton quantum chemistry program system",
       WIREs Comput. Mol. Sci. 2014, 4:269–284 (doi: 10.1002/wcms.1172)
     
    and
     
       Dalton, a molecular electronic structure program,
       Release Dalton2021.alpha (2021), see http://daltonprogram.org
   ----------------------------------------------------------------------------

    Authors in alphabetical order (Major contribution(s) in parenthesis):

  Kestutis Aidas,           Vilnius University,           Lithuania   (QM/MM)
  Celestino Angeli,         University of Ferrara,        Italy       (NEVPT2)
  Keld L. Bak,              UNI-C,                        Denmark     (AOSOPPA, non-adiabatic coupling, magnetic properties)
  Vebjoern Bakken,          University of Oslo,           Norway      (DALTON; geometry optimizer, symmetry detection)
  Radovan Bast,             UiT The Arctic U. of Norway,  Norway      (DALTON installation and execution frameworks)
  Pablo Baudin,             University of Valencia,       Spain       (Cholesky excitation energies)
  Linus Boman,              NTNU,                         Norway      (Cholesky decomposition and subsystems)
  Bruno N. Cabral Tenorio,  Technical Univ. of Denmark,   Denmark     (Lanczos-based CC methods)
  Ove Christiansen,         Aarhus University,            Denmark     (CC module)
  Renzo Cimiraglia,         University of Ferrara,        Italy       (NEVPT2)
  Sonia Coriani,            Technical Univ. of Denmark,   Denmark     (CC and RESPONS modules)
  Janusz Cukras,            University of Warsaw,         Poland      (MChD in RESPONS)
  Paal Dahle,               University of Oslo,           Norway      (Parallelization)
  Erik K. Dalskov,          UNI-C,                        Denmark     (SOPPA)
  Thomas Enevoldsen,        Univ. of Southern Denmark,    Denmark     (SOPPA)
  Janus J. Eriksen,         Aarhus University,            Denmark     (Polarizable embedding, TDA)
  Rasmus Faber,             Technical Univ. of Denmark,   Denmark     (Vib.avg. NMR w. SOPPA, parallel AO-SOPPA, CVS-CC and EOMCC)
  Tobias Fahleson,          KTH Stockholm,                Sweden      (Damped cubic response)
  Berta Fernandez,          U. of Santiago de Compostela, Spain       (Doublet spin, ESR in RESPONS)
  Lara Ferrighi,            Aarhus University,            Denmark     (PCM Cubic response)
  Heike Fliegl,             University of Oslo,           Norway      (CCSD(R12))
  Luca Frediani,            UiT The Arctic U. of Norway,  Norway      (PCM)
  Emmanuel Fromager,        Univ. Strasbourg,             France      (MC-srDFT)
  Bin Gao,                  UiT The Arctic U. of Norway,  Norway      (Gen1Int library)
  Andre S. P. Gomes,        CNRS/Universite de Lille,     France      (Frozen density embedding)
  Christof Haettig,         Ruhr-University Bochum,       Germany     (CC module)
  Kasper Hald,              Aarhus University,            Denmark     (CC module)
  Asger Halkier,            Aarhus University,            Denmark     (CC module)
  Frederik Beyer Hansen,    University of Copenhagen,     Denmark     (Parallel AO-SOPPA)
  Erik D. Hedegaard,        Univ. of Southern Denmark,    Denmark     (Polarizable embedding, QM/MM, and MC-srDFT)
  Hanne Heiberg,            University of Oslo,           Norway      (Geometry analysis, selected one-electron integrals)
  Trygve Helgaker,          University of Oslo,           Norway      (DALTON; ABACUS, ERI, DFT modules, London, and much more)
  Alf Christian Hennum,     University of Oslo,           Norway      (Parity violation)
  Hinne Hettema,            University of Auckland,       New Zealand (Quadratic response in RESPONS; SIRIUS supersymmetry)
  Eirik Hjertenaes,         NTNU,                         Norway      (Cholesky decomposition)
  Pi A. B. Haase,           University of Copenhagen,     Denmark     (Triplet AO-SOPPA)
  Maria Francesca Iozzi,    University of Oslo,           Norway      (RPA)
  Christoph Jacob           TU Braunschweig               Germany     (Frozen density embedding)
  Brano Jansik              Technical Univ. of Ostrava    Czech Rep.  (DFT cubic response)
  Hans Joergen Aa. Jensen,  Univ. of Southern Denmark,    Denmark     (DALTON; SIRIUS, RESPONS, ABACUS, MC-srDFT, and much more)
  Dan Jonsson,              UiT The Arctic U. of Norway,  Norway      (Cubic response in RESPONS module)
  Poul Joergensen,          Aarhus University,            Denmark     (RESPONS, ABACUS, and CC modules)
  Maciej Kaminski,          University of Warsaw,         Poland      (CPPh in RESPONS)
  Joanna Kauczor,           Linkoeping University,        Sweden      (Complex polarization propagator (CPP) module)
  Sheela Kirpekar,          Univ. of Southern Denmark,    Denmark     (Mass-velocity & Darwin integrals)
  Erik Kjellgren,           Univ. of Southern Denmark,    Denmark     (MC-srDFT)
  Wim Klopper,              KIT Karlsruhe,                Germany     (R12 code in CC, SIRIUS, and ABACUS modules)
  Stefan Knecht,            ETH Zurich,                   Switzerland (Parallel CI and MCSCF, MC-srDFT)
  Rika Kobayashi,           Australian National Univ.,    Australia   (DIIS in CC, London in MCSCF)
  Henrik Koch,              NTNU,                         Norway      (CC module, Cholesky decomposition)
  Jacob Kongsted,           Univ. of Southern Denmark,    Denmark     (Polarizable embedding, polarizable density embedding, QM/MM)
  Andrea Ligabue,           University of Modena,         Italy       (CTOCD, AOSOPPA)
  Nanna H. List             Univ. of Southern Denmark,    Denmark     (Polarizable embedding)
  Ola B. Lutnaes,           University of Oslo,           Norway      (DFT Hessian)
  Juan I. Melo,             University of Buenos Aires,   Argentina   (LRESC, Relativistic Effects on NMR Shieldings)
  Kurt V. Mikkelsen,        University of Copenhagen,     Denmark     (MC-SCRF and QM/MM)
  Rolf H. Myhre,            NTNU,                         Norway      (Subsystems and CC3)
  Christian Neiss,          Univ. Erlangen-Nuernberg,     Germany     (CCSD(R12))
  Christian B. Nielsen,     University of Copenhagen,     Denmark     (QM/MM)
  Patrick Norman,           KTH Stockholm,                Sweden      (Cubic response and complex frequency response in RESPONS)
  Jeppe Olsen,              Aarhus University,            Denmark     (SIRIUS CI/density modules)
  Jogvan Magnus H. Olsen,   Aarhus University,            Denmark     (Polarizable embedding and polarizable density embedding)
  Anders Osted,             Copenhagen University,        Denmark     (QM/MM)
  Martin J. Packer,         University of Sheffield,      UK          (SOPPA)
  Filip Pawlowski,          Kazimierz Wielki University,  Poland      (CC3)
  Morten N. Pedersen,       Univ. of Southern Denmark,    Denmark     (Polarizable embedding)
  Thomas B. Pedersen,       University of Oslo,           Norway      (Cholesky decomposition)
  Patricio F. Provasi,      University of Northeastern,   Argentina   (Analysis of coupling constants in localized orbitals)
  Peter Reinholdt,          Univ. of Southern Denmark,    Denmark     (Polarizable embedding and polarizable density embedding)
  Zilvinas Rinkevicius,     KTH Stockholm,                Sweden      (open-shell DFT, ESR)
  Elias Rudberg,            KTH Stockholm,                Sweden      (DFT grid and basis info)
  Torgeir A. Ruden,         University of Oslo,           Norway      (Numerical derivatives in ABACUS)
  Kenneth Ruud,             UiT The Arctic U. of Norway,  Norway      (DALTON; ABACUS magnetic properties and much more)
  Pawel Salek,              KTH Stockholm,                Sweden      (DALTON; DFT code)
  Claire C. M. Samson       University of Karlsruhe       Germany     (Boys localization, r12 integrals in ERI)
  Alfredo Sanchez de Meras, University of Valencia,       Spain       (CC module, Cholesky decomposition)
  Trond Saue,               Paul Sabatier University,     France      (direct Fock matrix construction)
  Stephan P. A. Sauer,      University of Copenhagen,     Denmark     (SOPPA(CCSD), SOPPA prop., AOSOPPA, vibrational g-factors)
  Bernd Schimmelpfennig,    Forschungszentrum Karlsruhe,  Germany     (AMFI module)
  Anna K. Schnack-Petersen, University of Copenhagen,     Denmark     (RPA(D) and HRPA(D) properties in AOSOPPA)
  Kristian Sneskov,         Aarhus University,            Denmark     (Polarizable embedding, QM/MM)
  Arnfinn H. Steindal,      UiT The Arctic U. of Norway,  Norway      (parallel QM/MM, polarizable embedding)
  Casper Steinmann,         Aalborg University,           Denmark     (QFIT, polarizable embedding)
  K. O. Sylvester-Hvid,     University of Copenhagen,     Denmark     (MC-SCRF)
  Peter R. Taylor,          VLSCI/Univ. of Melbourne,     Australia   (Symmetry handling ABACUS, integral transformation)
  Andrew M. Teale,          University of Nottingham,     England     (DFT-AC, DFT-D)
  David P. Tew,             University of Bristol,        England     (CCSD(R12))
  Julien Toulouse,          Sorbonne Univ.,               France      (MC-srDFT)
  Olav Vahtras,             KTH Stockholm,                Sweden      (Triplet response, spin-orbit, ESR, TDDFT, open-shell DFT)
  Lucas Visscher,           Vrije Universiteit Amsterdam, Netherlands (Frozen density embedding)
  David J. Wilson,          La Trobe University,          Australia   (DFT Hessian and DFT magnetizabilities)
  Hans Agren,               KTH Stockholm,                Sweden      (SIRIUS module, RESPONS, MC-SCRF solvation)
 --------------------------------------------------------------------------------

     Date and time (Linux)  : Tue Sep 28 00:46:49 2021
     Host name              : xeon                                    

 * Work memory size             :  2097152000 = 15.625 gigabytes.

 * Directories for basis set searches:
   1) /SN7500_pool/Plot_dispersion/H2O_H2O_dalton
   2) /home/hemik/dalton/build_gcc/basis


Compilation information
-----------------------

 Who compiled             | hemik
 Host                     | xeon
 System                   | Linux-5.13.19-200.fc34.x86_64
 CMake generator          | Unix Makefiles
 Processor                | x86_64
 64-bit integers          | OFF
 MPI                      | OFF
 Fortran compiler         | /usr/bin/gfortran
 Fortran compiler version | GNU Fortran (GCC) 11.2.1 20210728 (Red Hat 11.2.1-
                          | 1)
 C compiler               | /usr/bin/gcc
 C compiler version       | gcc (GCC) 11.2.1 20210728 (Red Hat 11.2.1-1)
 C++ compiler             | /usr/bin/g++
 C++ compiler version     | g++ (GCC) 11.2.1 20210728 (Red Hat 11.2.1-1)
 BLAS                     | /lib64/libblas.so
 LAPACK                   | /lib64/liblapack.so
 Static linking           | OFF
 Last Git revision        | d638df68acd0786e2076d148683003a2655c9270
 Git branch               | master
 Configuration time       | 2021-09-27 20:59:15.494818


   Content of the .dal input file
 ----------------------------------

**DALTON INPUT
.RUN WAVE FUNCTIONS
**WAVE FUNCTIONS
.HF
*ORBITAL INPUT
.PUNCHOUTPUT
*PRINT LEVELS
.CANONI
.PRINTLEVELS
11 11
**END OF DALTON INPUT


   Content of the .mol file
 ----------------------------

BASIS
aug-cc-pVDZ
Energy calculation without symmetry
Energy calculation without symmetry
Atomtypes=6 Nosymmetry
Charge=8.0    Atoms=1
O1       0.0614560743100     0.0057782874900    -0.1088907038500
Charge=1.0    Atoms=1
H1      -1.7447100105000    -0.0153318415300     0.1667182726800
Charge=1.0    Atoms=1
H2       0.7691565673100    -0.0763926676700     1.5618122632000
Charge=8.0    Atoms=1
O2      -5.4716162668300    -0.0148424025000     0.3212978585500
Charge=1.0    Atoms=1
H3      -6.2145544803300    -1.4081241458000    -0.5815659756400
Charge=1.0    Atoms=1
H4      -6.1912447102600     1.4641100684900    -0.4554362145400


       *******************************************************************
       *********** Output from DALTON general input processing ***********
       *******************************************************************

 --------------------------------------------------------------------------------
   Overall default print level:    0
   Print level for DALTON.STAT:    1

    HERMIT 1- and 2-electron integral sections will be executed
    "Old" integral transformation used (limited to max 255 basis functions)
    Wave function sections will be executed (SIRIUS module)
 --------------------------------------------------------------------------------


   ****************************************************************************
   *************** Output of molecule and basis set information ***************
   ****************************************************************************


    The two title cards from your ".mol" input:
    ------------------------------------------------------------------------
 1: Energy calculation without symmetry                                     
 2: Energy calculation without symmetry                                     
    ------------------------------------------------------------------------

  Atomic type no.    1
  --------------------
  Nuclear charge:   8.00000
  Number of symmetry independent centers:    1
  Number of basis sets to read;    2
  Basis set file used for this atomic type with Z =   8 :
     "/home/hemik/dalton/build_gcc/basis/aug-cc-pVDZ"

  Atomic type no.    2
  --------------------
  Nuclear charge:   1.00000
  Number of symmetry independent centers:    1
  Number of basis sets to read;    2
  Basis set file used for this atomic type with Z =   1 :
     "/home/hemik/dalton/build_gcc/basis/aug-cc-pVDZ"

  Atomic type no.    3
  --------------------
  Nuclear charge:   1.00000
  Number of symmetry independent centers:    1
  Number of basis sets to read;    2
  Basis set file used for this atomic type with Z =   1 :
     "/home/hemik/dalton/build_gcc/basis/aug-cc-pVDZ"

  Atomic type no.    4
  --------------------
  Nuclear charge:   8.00000
  Number of symmetry independent centers:    1
  Number of basis sets to read;    2
  Basis set file used for this atomic type with Z =   8 :
     "/home/hemik/dalton/build_gcc/basis/aug-cc-pVDZ"

  Atomic type no.    5
  --------------------
  Nuclear charge:   1.00000
  Number of symmetry independent centers:    1
  Number of basis sets to read;    2
  Basis set file used for this atomic type with Z =   1 :
     "/home/hemik/dalton/build_gcc/basis/aug-cc-pVDZ"

  Atomic type no.    6
  --------------------
  Nuclear charge:   1.00000
  Number of symmetry independent centers:    1
  Number of basis sets to read;    2
  Basis set file used for this atomic type with Z =   1 :
     "/home/hemik/dalton/build_gcc/basis/aug-cc-pVDZ"


                         SYMGRP: Point group information
                         -------------------------------

@    Point group: C1 


                                 Isotopic Masses
                                 ---------------

                           O1         15.994915
                           H1          1.007825
                           H2          1.007825
                           O2         15.994915
                           H3          1.007825
                           H4          1.007825

                       Total mass:    36.021130 amu
                       Natural abundance:  99.461 %

 Center-of-mass coordinates (a.u.):   -2.776734   -0.005025    0.113666
 Center-of-mass coordinates (Angs):   -1.469385   -0.002659    0.060149


  Atoms and basis sets
  --------------------

  Number of atom types :    6
  Total number of atoms:    6

  Basis set used is "aug-cc-pVDZ" from the basis set library.

  label    atoms   charge   prim   cont     basis
  ----------------------------------------------------------------------
  O1          1    8.0000    35    23      [10s5p2d|4s3p2d]                                   
  H1          1    1.0000    11     9      [5s2p|3s2p]                                        
  H2          1    1.0000    11     9      [5s2p|3s2p]                                        
  O2          1    8.0000    35    23      [10s5p2d|4s3p2d]                                   
  H3          1    1.0000    11     9      [5s2p|3s2p]                                        
  H4          1    1.0000    11     9      [5s2p|3s2p]                                        
  ----------------------------------------------------------------------
  total:      6   20.0000   114    82
  ----------------------------------------------------------------------
  Spherical harmonic basis used.

  Threshold for neglecting AO integrals:  1.00D-12


  Cartesian Coordinates (a.u.)
  ----------------------------

  Total number of coordinates:   18
  O1      :     1  x   0.0614560743    2  y   0.0057782875    3  z  -0.1088907039
  H1      :     4  x  -1.7447100105    5  y  -0.0153318415    6  z   0.1667182727
  H2      :     7  x   0.7691565673    8  y  -0.0763926677    9  z   1.5618122632
  O2      :    10  x  -5.4716162668   11  y  -0.0148424025   12  z   0.3212978585
  H3      :    13  x  -6.2145544803   14  y  -1.4081241458   15  z  -0.5815659756
  H4      :    16  x  -6.1912447103   17  y   1.4641100685   18  z  -0.4554362145


   Interatomic separations (in Angstrom):
   --------------------------------------

            O1          H1          H2          O2          H3          H4    
            ------      ------      ------      ------      ------      ------
 O1    :    0.000000
 H1    :    0.966910    0.000000
 H2    :    0.961129    1.521745    0.000000
 O2    :    2.936832    1.973890    3.367244    0.000000
 H3    :    3.413536    2.508954    3.929468    0.962514    0.000000
 H4    :    3.402535    2.501587    3.920543    0.962533    1.521436    0.000000


  Max    interatomic separation is    3.9295 Angstrom (    7.4256 Bohr)
  between atoms    5 and    3, "H3    " and "H2    ".

  Min HX interatomic separation is    0.9611 Angstrom (    1.8163 Bohr)

  Min YX interatomic separation is    2.9368 Angstrom (    5.5498 Bohr)


  Bond distances (Angstrom):
  --------------------------

                  atom 1     atom 2       distance
                  ------     ------       --------
  bond distance:  H1         O1           0.966910
  bond distance:  H2         O1           0.961129
  bond distance:  H3         O2           0.962514
  bond distance:  H4         O2           0.962533


  Bond angles (degrees):
  ----------------------

                  atom 1     atom 2     atom 3         angle
                  ------     ------     ------         -----
  bond angle:     H1         O1         H2           104.234
  bond angle:     H3         O2         H4           104.434




 Principal moments of inertia (u*A**2) and principal axes
 --------------------------------------------------------

   IA       2.312399          0.999422    0.001632   -0.033954
   IB      80.317637         -0.009617    0.971613   -0.236380
   IC      80.341843          0.032605    0.236570    0.971067


 Rotational constants
 --------------------

               A                   B                   C

         218551.8397           6292.2544           6290.3586 MHz
            7.290105            0.209887            0.209824 cm-1


@  Nuclear repulsion energy :   36.385330669955 Hartree


                     .---------------------------------------.
                     | Starting in Integral Section (HERMIT) |
                     `---------------------------------------'



 ***************************************************************************************
 ****************** Output from **INTEGRALS input processing (HERMIT) ******************
 ***************************************************************************************


 - Using defaults, no **INTEGRALS input found

 Default print level:        1

 Calculation of one- and two-electron Hamiltonian integrals.

 Center of mass  (bohr):     -2.776734492613     -0.005024772684      0.113665893875
 Operator center (bohr):      0.000000000000      0.000000000000      0.000000000000
 Gauge origin    (bohr):      0.000000000000      0.000000000000      0.000000000000
 Dipole origin   (bohr):      0.000000000000      0.000000000000      0.000000000000

Calculation of 2-electron integrals are postponed until they are needed.


     ************************************************************************
     ************************** Output from HERINT **************************
     ************************************************************************



                      Nuclear contribution to dipole moments
                      --------------------------------------

                 au               Debye          C m (/(10**-30)

      x    -56.66263417      -144.02204120      -480.40581860
      y     -0.10825151        -0.27514787        -0.91779449
      z      2.39078558         6.07677043        20.26992430


  Total CPU  time used in HERMIT:   0.06 seconds
  Total wall time used in HERMIT:   0.06 seconds


                        .----------------------------------.
                        | End of Integral Section (HERMIT) |
                        `----------------------------------'



                   .--------------------------------------------.
                   | Starting in Wave Function Section (SIRIUS) |
                   `--------------------------------------------'


 DELMO: eigenvalues of overlap matrix for symmetry    1

    8.49406D+00    5.99251D+00    4.46443D+00    4.31472D+00    4.23747D+00
    3.35570D+00    3.31817D+00    3.05934D+00    2.48421D+00    2.27305D+00
    2.20997D+00    2.04488D+00    1.99052D+00    1.89392D+00    1.86130D+00
    1.75789D+00    1.69412D+00    1.56499D+00    1.53752D+00    1.52834D+00
    1.43437D+00    1.07606D+00    1.00785D+00    1.00360D+00    9.77124D-01
    9.54064D-01    9.32356D-01    8.38058D-01    7.73250D-01    7.36169D-01
    7.19658D-01    7.01026D-01    6.90127D-01    6.89076D-01    6.30795D-01
    6.03356D-01    5.85009D-01    5.72423D-01    5.50246D-01    4.75650D-01
    4.48998D-01    4.02424D-01    3.89617D-01    3.58340D-01    3.50319D-01
    3.35355D-01    3.33477D-01    2.86493D-01    2.70313D-01    2.17442D-01
    2.05996D-01    1.91302D-01    1.87834D-01    1.83433D-01    1.67422D-01
    1.59802D-01    1.49225D-01    1.41901D-01    1.39469D-01    1.26163D-01
    1.20154D-01    1.18756D-01    1.09184D-01    8.92742D-02    7.93135D-02
    7.43787D-02    6.79082D-02    6.25952D-02    3.54749D-02    3.23443D-02
    2.82149D-02    2.19357D-02    1.95463D-02    1.62977D-02    1.54622D-02
    1.15492D-02    9.12278D-03    6.35964D-03    2.93657D-03    2.64748D-03
    2.15676D-03    1.69941D-03

 Trial molecular orbitals Gram-Schmidt orthogonalized.

 Molecular orbitals for symmetry species 1  (A  )
 ------------------------------------------------

    Orbital         1        2        3        4        5        6        7
   1 O1  :1s     0.0064  -0.0155  -0.0095   0.0001  -0.0120  -0.0100   0.0000
   2 O1  :1s     0.0484  -0.0981  -0.0496   0.0003  -0.0636  -0.0502  -0.0000
   3 O1  :1s     0.0567  -0.1092  -0.0519   0.0003  -0.0672  -0.0522  -0.0001
   4 O1  :1s     0.0802  -0.0983  -0.0315   0.0002  -0.0465  -0.0367  -0.0003
   5 O1  :2px   -0.0201  -0.0009  -0.0760   0.0004  -0.0205  -0.0367  -0.0012
   6 O1  :2py   -0.0004   0.0016   0.0026   0.1113  -0.0043  -0.0064  -0.1540
   7 O1  :2pz    0.0083  -0.0312  -0.0366   0.0058   0.0858   0.1341  -0.0079
   8 O1  :2px   -0.0295  -0.0046  -0.1045   0.0005  -0.0288  -0.0438  -0.0014
   9 O1  :2py   -0.0005   0.0020   0.0032   0.1426  -0.0057  -0.0078  -0.1833
  10 O1  :2pz    0.0107  -0.0388  -0.0447   0.0074   0.1134   0.1639  -0.0095
  11 O1  :2px   -0.0574  -0.0373  -0.1167   0.0006  -0.0341  -0.0299  -0.0011
  12 O1  :2py   -0.0005   0.0019   0.0031   0.1556  -0.0068  -0.0058  -0.1183
  13 O1  :2pz    0.0101  -0.0368  -0.0419   0.0080   0.1355   0.1211  -0.0063
  14 O1  :3d2-   0.0000  -0.0001   0.0001  -0.0157   0.0012   0.0018   0.0069
  15 O1  :3d1-  -0.0001   0.0005   0.0006   0.0163  -0.0009  -0.0022  -0.0376
  16 O1  :3d0   -0.0001  -0.0041  -0.0080   0.0015   0.0134   0.0323  -0.0032
  17 O1  :3d1+  -0.0005   0.0010  -0.0044  -0.0008  -0.0256  -0.0385   0.0000
  18 O1  :3d2+   0.0029  -0.0018   0.0051   0.0009  -0.0059  -0.0128  -0.0021
  19 O1  :3d2-   0.0001  -0.0002   0.0002  -0.0366   0.0026   0.0028   0.0058
  20 O1  :3d1-  -0.0002   0.0007   0.0009   0.0326  -0.0023  -0.0044  -0.0651
  21 O1  :3d0   -0.0033  -0.0094  -0.0225   0.0030   0.0273   0.0605  -0.0056
  22 O1  :3d1+  -0.0022   0.0040  -0.0099  -0.0018  -0.0534  -0.0576  -0.0002
  23 O1  :3d2+   0.0097   0.0038   0.0250   0.0017  -0.0035  -0.0186  -0.0036
  24 H1  :1s     0.0835  -0.0666   0.0561  -0.0008  -0.0052  -0.0028   0.0010
  25 H1  :1s     0.0981  -0.0688   0.0465  -0.0007  -0.0076  -0.0089   0.0006
  26 H1  :1s     0.0963  -0.0332  -0.0200  -0.0001  -0.0112  -0.0184  -0.0003
  27 H1  :2px    0.0014  -0.0461  -0.0547   0.0001  -0.0246   0.0062   0.0008
  28 H1  :2py    0.0001   0.0006   0.0018   0.0904  -0.0043  -0.0052  -0.0898
  29 H1  :2pz    0.0011  -0.0134  -0.0215   0.0046   0.0864   0.1087  -0.0044
  30 H1  :2px   -0.0224  -0.1105  -0.1255   0.0007  -0.0593  -0.0100   0.0003
  31 H1  :2py    0.0001   0.0014   0.0034   0.1823  -0.0086  -0.0061  -0.1037
  32 H1  :2pz    0.0019  -0.0305  -0.0411   0.0093   0.1696   0.1272  -0.0053
  33 H2  :1s     0.0478  -0.1043  -0.0895   0.0006   0.0180   0.0569  -0.0009
  34 H2  :1s     0.0585  -0.1107  -0.0809   0.0005   0.0122   0.0393  -0.0008
  35 H2  :1s     0.0724  -0.0648  -0.0426   0.0002   0.0008  -0.0072  -0.0006
  36 H2  :2px   -0.0143   0.0221  -0.0157   0.0000  -0.0410  -0.0807  -0.0008
  37 H2  :2py    0.0004  -0.0013  -0.0008   0.0710  -0.0025  -0.0029  -0.1224
  38 H2  :2pz   -0.0088   0.0283   0.0277   0.0033   0.0484   0.0586  -0.0058
  39 H2  :2px   -0.0424   0.0254  -0.0715   0.0003  -0.0568  -0.0681  -0.0013
  40 H2  :2py    0.0010  -0.0017   0.0005   0.1345  -0.0058  -0.0066  -0.1695
  41 H2  :2pz   -0.0202   0.0363   0.0087   0.0066   0.1146   0.1353  -0.0085
  42 O2  :1s     0.0089   0.0124  -0.0016   0.0000   0.0081  -0.0084  -0.0000
  43 O2  :1s     0.0647   0.0796  -0.0104   0.0001   0.0438  -0.0407  -0.0002
  44 O2  :1s     0.0752   0.0886  -0.0113   0.0001   0.0466  -0.0418  -0.0002
  45 O2  :1s     0.0985   0.0727  -0.0179   0.0001   0.0300  -0.0241  -0.0001
  46 O2  :2px    0.0114  -0.0318   0.1273  -0.0007   0.0053   0.0125  -0.0002
  47 O2  :2py    0.0005   0.0012   0.0007   0.1088  -0.0055   0.0065   0.1548
  48 O2  :2pz   -0.0095  -0.0245  -0.0079   0.0056   0.1091  -0.1324   0.0077
  49 O2  :2px    0.0187  -0.0428   0.1649  -0.0008   0.0090   0.0140  -0.0001
  50 O2  :2py    0.0006   0.0015   0.0009   0.1422  -0.0072   0.0078   0.1872
  51 O2  :2pz   -0.0121  -0.0310  -0.0109   0.0073   0.1426  -0.1582   0.0093
  52 O2  :2px    0.0429  -0.0825   0.1391  -0.0007   0.0024   0.0104   0.0003
  53 O2  :2py    0.0005   0.0016   0.0014   0.1679  -0.0083   0.0050   0.1403
  54 O2  :2pz   -0.0108  -0.0321  -0.0157   0.0085   0.1633  -0.0987   0.0068
  55 O2  :3d2-  -0.0000  -0.0002   0.0009   0.0040   0.0002  -0.0020  -0.0277
  56 O2  :3d1-   0.0001  -0.0001   0.0002  -0.0079   0.0020  -0.0046  -0.0124
  57 O2  :3d0   -0.0010   0.0006   0.0028  -0.0008  -0.0214   0.0438  -0.0013
  58 O2  :3d1+   0.0009   0.0041  -0.0153   0.0003  -0.0026   0.0349  -0.0012
  59 O2  :3d2+  -0.0001  -0.0003  -0.0097  -0.0003  -0.0045   0.0224  -0.0004
  60 O2  :3d2-   0.0000  -0.0003   0.0021   0.0177  -0.0001  -0.0043  -0.0647
  61 O2  :3d1-   0.0000  -0.0004   0.0004  -0.0180   0.0036  -0.0076  -0.0269
  62 O2  :3d0   -0.0041   0.0048   0.0022  -0.0018  -0.0418   0.0727  -0.0026
  63 O2  :3d1+   0.0007   0.0049  -0.0342   0.0010   0.0030   0.0773  -0.0030
  64 O2  :3d2+   0.0058  -0.0013  -0.0121  -0.0007  -0.0036   0.0357  -0.0010
  65 H3  :1s     0.0619   0.0836  -0.0514  -0.0755  -0.0146   0.0174  -0.1119
  66 H3  :1s     0.0744   0.0886  -0.0471  -0.0678  -0.0107   0.0095  -0.0857
  67 H3  :1s     0.0832   0.0438  -0.0394  -0.0278  -0.0074  -0.0077  -0.0193
  68 H3  :2px    0.0123  -0.0005   0.0676  -0.0247  -0.0021  -0.0027  -0.0159
  69 H3  :2py    0.0148   0.0333  -0.0294   0.0247  -0.0186   0.0486   0.0354
  70 H3  :2pz    0.0049   0.0063  -0.0155  -0.0142   0.0698  -0.1073  -0.0324
  71 H3  :2px    0.0371  -0.0173   0.1414  -0.0316   0.0022  -0.0076   0.0045
  72 H3  :2py    0.0326   0.0520  -0.0261   0.0968  -0.0149   0.0331   0.1245
  73 H3  :2pz    0.0107   0.0032  -0.0196  -0.0086   0.1411  -0.1535  -0.0121
  74 H4  :1s     0.0621   0.0834  -0.0495   0.0762  -0.0157   0.0184   0.1116
  75 H4  :1s     0.0746   0.0883  -0.0455   0.0685  -0.0116   0.0103   0.0854
  76 H4  :1s     0.0834   0.0436  -0.0388   0.0283  -0.0078  -0.0075   0.0191
  77 H4  :2px    0.0121  -0.0011   0.0687   0.0234  -0.0022  -0.0034   0.0139
  78 H4  :2py   -0.0153  -0.0338   0.0301   0.0228   0.0121  -0.0387   0.0316
  79 H4  :2pz    0.0036   0.0033  -0.0126   0.0175   0.0710  -0.1106   0.0366
  80 H4  :2px    0.0368  -0.0183   0.1427   0.0297   0.0018  -0.0082  -0.0057
  81 H4  :2py   -0.0337  -0.0521   0.0277   0.0953   0.0011  -0.0183   0.1223
  82 H4  :2pz    0.0078  -0.0015  -0.0169   0.0191   0.1419  -0.1553   0.0247

    Orbital         8        9       10       11       12       13       14
   1 O1  :1s    -0.0175  -0.0170  -0.0350   0.0001   0.0000   0.0043  -0.0249
   2 O1  :1s    -0.0634  -0.0678  -0.0961   0.0003   0.0000   0.0065  -0.0535
   3 O1  :1s    -0.0579  -0.0650  -0.0798   0.0003  -0.0001   0.0020  -0.0401
   4 O1  :1s     0.0244   0.0016   0.0375  -0.0003  -0.0004  -0.0349   0.0706
   5 O1  :2px    0.1881  -0.0225  -0.0326   0.0001  -0.0013  -0.1939  -0.0323
   6 O1  :2py   -0.0027   0.0004   0.0030  -0.0366  -0.0301  -0.0036   0.0117
   7 O1  :2pz    0.0370  -0.0163  -0.0570  -0.0009  -0.0002   0.0645  -0.2134
   8 O1  :2px    0.2101  -0.0213  -0.0526   0.0002  -0.0011  -0.1682  -0.0085
   9 O1  :2py   -0.0038   0.0000   0.0015  -0.0374  -0.0297  -0.0044   0.0104
  10 O1  :2pz    0.0550  -0.0086  -0.0297  -0.0010  -0.0001   0.0832  -0.1850
  11 O1  :2px    0.1171  -0.0273  -0.0190   0.0003  -0.0003  -0.0406   0.0403
  12 O1  :2py   -0.0042   0.0000  -0.0033  -0.0102   0.0026  -0.0049   0.0025
  13 O1  :2pz    0.0723   0.0011   0.0593  -0.0004   0.0008   0.0940  -0.0397
  14 O1  :3d2-  -0.0026   0.0000  -0.0051  -0.1830   0.2044  -0.0137  -0.0010
  15 O1  :3d1-   0.0002  -0.0007   0.0032  -0.1118   0.0981  -0.0037  -0.0103
  16 O1  :3d0   -0.0116   0.0178  -0.0605  -0.0096   0.0095   0.0287   0.1758
  17 O1  :3d1+   0.0521  -0.0032   0.1111  -0.0091   0.0116   0.2385  -0.0527
  18 O1  :3d2+   0.0110  -0.0213   0.0574  -0.0043   0.0033   0.0249  -0.1389
  19 O1  :3d2-  -0.0045  -0.0008  -0.0067  -0.2540   0.2513  -0.0191  -0.0033
  20 O1  :3d1-  -0.0010  -0.0024   0.0006  -0.1496   0.1227  -0.0071  -0.0171
  21 O1  :3d0   -0.0195   0.0441  -0.0660  -0.0130   0.0124   0.0903   0.2714
  22 O1  :3d1+   0.0901   0.0109   0.1545  -0.0125   0.0148   0.3308  -0.0157
  23 O1  :3d2+   0.0445  -0.0350   0.1223  -0.0058   0.0038  -0.0120  -0.1736
  24 H1  :1s    -0.0958  -0.0348   0.0720  -0.0001  -0.0003   0.0135  -0.0939
  25 H1  :1s    -0.0480  -0.0180   0.0540  -0.0003  -0.0002  -0.0053  -0.0130
  26 H1  :1s     0.0382   0.1016   0.0724  -0.0008  -0.0007  -0.0574   0.1033
  27 H1  :2px   -0.1050  -0.0100  -0.1721  -0.0002   0.0021   0.1190   0.0112
  28 H1  :2py   -0.0010  -0.0001   0.0055   0.1692  -0.1903   0.0140   0.0040
  29 H1  :2pz   -0.0028  -0.0032  -0.1185   0.0090  -0.0112  -0.2339  -0.0387
  30 H1  :2px   -0.0491  -0.0020  -0.0816   0.0002   0.0009   0.0495   0.0633
  31 H1  :2py   -0.0022   0.0003  -0.0002   0.1055  -0.0681   0.0047   0.0030
  32 H1  :2pz    0.0278  -0.0070  -0.0081   0.0053  -0.0045  -0.0759  -0.0494
  33 H2  :1s     0.0976  -0.0097   0.0211   0.0003   0.0013   0.1083   0.0142
  34 H2  :1s     0.0873  -0.0014   0.0460   0.0000   0.0006   0.0502   0.0426
  35 H2  :1s     0.0799   0.0660   0.0875  -0.0007  -0.0004  -0.0333   0.1255
  36 H2  :2px    0.1531  -0.0020   0.1664   0.0001  -0.0011   0.0278  -0.0731
  37 H2  :2py   -0.0008  -0.0045  -0.0037  -0.2018   0.1536  -0.0048  -0.0151
  38 H2  :2pz   -0.0018   0.0802   0.0948  -0.0107   0.0085   0.0733   0.2564
  39 H2  :2px    0.1960   0.0024   0.0542   0.0003  -0.0002   0.0037   0.0087
  40 H2  :2py   -0.0039  -0.0044  -0.0046  -0.1177   0.0634  -0.0082  -0.0066
  41 H2  :2pz    0.0574   0.0815   0.1013  -0.0061   0.0049   0.1524   0.1223
  42 O2  :1s     0.0120  -0.0490  -0.0261   0.0001   0.0004   0.0195   0.0123
  43 O2  :1s     0.0547  -0.1564  -0.0901   0.0004   0.0009   0.0415   0.0223
  44 O2  :1s     0.0545  -0.1380  -0.0816   0.0004   0.0008   0.0303   0.0153
  45 O2  :1s     0.0057   0.0543   0.0093  -0.0002  -0.0005  -0.0359  -0.0016
  46 O2  :2px    0.0955   0.0288   0.0085  -0.0002  -0.0013  -0.0969  -0.0217
  47 O2  :2py    0.0025  -0.0022  -0.0026  -0.0094  -0.0077   0.0037  -0.0068
  48 O2  :2pz   -0.0311   0.0428   0.0550  -0.0010  -0.0013  -0.0663   0.0601
  49 O2  :2px    0.1099   0.0046   0.0153  -0.0002  -0.0013  -0.0923  -0.0217
  50 O2  :2py    0.0028  -0.0008  -0.0024  -0.0117  -0.0025   0.0034  -0.0064
  51 O2  :2pz   -0.0322   0.0168   0.0499  -0.0011  -0.0010  -0.0618   0.0750
  52 O2  :2px    0.0441  -0.0609   0.0220  -0.0006  -0.0001  -0.0032   0.0317
  53 O2  :2py    0.0012   0.0028  -0.0016  -0.0064  -0.0026   0.0016  -0.0025
  54 O2  :2pz   -0.0039  -0.0557   0.0233  -0.0005  -0.0005  -0.0310   0.0761
  55 O2  :3d2-   0.0009   0.0034  -0.0037   0.1866   0.1397   0.0035  -0.0041
  56 O2  :3d1-   0.0008   0.0090  -0.0099  -0.1047  -0.2241   0.0113  -0.0181
  57 O2  :3d0    0.0165  -0.0581  -0.0011  -0.0082  -0.0174  -0.0451   0.1882
  58 O2  :3d1+  -0.0170  -0.0461   0.0553   0.0073   0.0028  -0.0818   0.0073
  59 O2  :3d2+  -0.0465  -0.0948   0.1957  -0.0026  -0.0099  -0.0962   0.0012
  60 O2  :3d2-   0.0013   0.0038  -0.0048   0.2741   0.1438   0.0060  -0.0052
  61 O2  :3d1-   0.0009   0.0155  -0.0122  -0.1337  -0.2970   0.0124  -0.0237
  62 O2  :3d0    0.0358  -0.0974  -0.0219  -0.0104  -0.0227  -0.0411   0.2411
  63 O2  :3d1+  -0.0299  -0.0283   0.0734   0.0110   0.0016  -0.1327  -0.0093
  64 O2  :3d2+  -0.0816  -0.1783   0.2740  -0.0030  -0.0134  -0.1024  -0.0120
  65 H3  :1s     0.0069   0.0362  -0.0567   0.0302  -0.0398   0.0177  -0.0459
  66 H3  :1s     0.0037   0.0632  -0.0221   0.0151  -0.0184  -0.0115  -0.0346
  67 H3  :1s    -0.0096   0.1593   0.0478   0.0028  -0.0030  -0.0647   0.0277
  68 H3  :2px    0.0975  -0.0118  -0.1605  -0.1381  -0.1255   0.0620   0.0380
  69 H3  :2py   -0.0074  -0.2316   0.0271  -0.0095   0.0002   0.0209   0.0747
  70 H3  :2pz   -0.0105  -0.0208  -0.0495   0.1004   0.1622   0.0775  -0.0525
  71 H3  :2px    0.1089  -0.0550  -0.0663  -0.0893  -0.0364   0.0116   0.0249
  72 H3  :2py    0.0002  -0.1695   0.0102  -0.0252   0.0264   0.0201   0.0275
  73 H3  :2pz   -0.0114  -0.0664  -0.0126   0.0438   0.0906   0.0162   0.0301
  74 H4  :1s     0.0097   0.0363  -0.0575  -0.0293   0.0406   0.0164  -0.0427
  75 H4  :1s     0.0056   0.0632  -0.0225  -0.0147   0.0182  -0.0120  -0.0328
  76 H4  :1s    -0.0092   0.1593   0.0477  -0.0038   0.0013  -0.0649   0.0287
  77 H4  :2px    0.0976  -0.0083  -0.1582   0.1394   0.1289   0.0585   0.0302
  78 H4  :2py    0.0075   0.2327  -0.0202  -0.0027   0.0121  -0.0289  -0.0691
  79 H4  :2pz   -0.0087  -0.0003  -0.0535  -0.1005  -0.1592   0.0793  -0.0655
  80 H4  :2px    0.1082  -0.0524  -0.0648   0.0894   0.0375   0.0108   0.0206
  81 H4  :2py    0.0019   0.1756  -0.0086  -0.0224   0.0330  -0.0226  -0.0272
  82 H4  :2pz   -0.0108  -0.0513  -0.0143  -0.0461  -0.0874   0.0164   0.0231

    Orbital        15       16       17       18       19       20       21
   1 O1  :1s    -0.0006   0.0308   0.0002  -0.0063  -0.0029  -0.0380  -0.0001
   2 O1  :1s    -0.0012   0.0444   0.0003  -0.0039  -0.0013  -0.0680  -0.0003
   3 O1  :1s    -0.0009   0.0254   0.0001   0.0003  -0.0010  -0.0527  -0.0003
   4 O1  :1s     0.0017  -0.0678  -0.0003   0.0253   0.0004   0.0552  -0.0001
   5 O1  :2px    0.0001  -0.0526   0.0003  -0.0490  -0.0931  -0.1153   0.0011
   6 O1  :2py   -0.0541  -0.0050  -0.1211   0.0044   0.0051   0.0031  -0.1022
   7 O1  :2pz   -0.0075   0.0902  -0.0057  -0.1064  -0.1141  -0.0630  -0.0043
   8 O1  :2px    0.0005  -0.0356   0.0004  -0.0286  -0.0378  -0.0679   0.0006
   9 O1  :2py   -0.0527  -0.0038  -0.1361   0.0029   0.0037   0.0006  -0.0847
  10 O1  :2pz   -0.0067   0.0700  -0.0066  -0.0738  -0.0823  -0.0113  -0.0037
  11 O1  :2px    0.0013  -0.0575   0.0002   0.0100   0.0762   0.0814  -0.0006
  12 O1  :2py   -0.0127  -0.0015  -0.1551  -0.0024  -0.0004  -0.0037   0.0419
  13 O1  :2pz   -0.0015   0.0461  -0.0077   0.0497   0.0158   0.0772   0.0015
  14 O1  :3d2-   0.1060  -0.0047  -0.2264  -0.0023   0.0117   0.0096   0.0249
  15 O1  :3d1-   0.0588   0.0114   0.4007   0.0209  -0.0275   0.0390   0.0570
  16 O1  :3d0    0.0091  -0.1602   0.0348  -0.1456   0.0307  -0.4092   0.0061
  17 O1  :3d1+   0.0031   0.1258  -0.0124   0.0377  -0.1588  -0.2142   0.0015
  18 O1  :3d2+  -0.0008   0.0284   0.0219  -0.1497   0.4807  -0.0713   0.0032
  19 O1  :3d2-   0.1112  -0.0044  -0.2435  -0.0028   0.0092   0.0062   0.0051
  20 O1  :3d1-   0.0711   0.0159   0.4303   0.0188  -0.0316   0.0331   0.0554
  21 O1  :3d0    0.0119  -0.1804   0.0374  -0.1072   0.1012  -0.3302   0.0054
  22 O1  :3d1+   0.0040   0.1130  -0.0134   0.0394  -0.1167  -0.1468   0.0003
  23 O1  :3d2+  -0.0005  -0.0287   0.0232  -0.1733   0.4428  -0.0892   0.0034
  24 H1  :1s    -0.0018  -0.0089  -0.0003  -0.0190   0.0913   0.0504   0.0000
  25 H1  :1s    -0.0001  -0.0301  -0.0002   0.0078  -0.0109   0.0078   0.0000
  26 H1  :1s     0.0020  -0.0133   0.0001   0.0100  -0.0099   0.0653  -0.0002
  27 H1  :2px   -0.0002   0.1440   0.0002   0.0315   0.1458   0.0630  -0.0008
  28 H1  :2py   -0.0892   0.0029   0.1807   0.0022   0.0004  -0.0007  -0.0468
  29 H1  :2pz   -0.0046  -0.0777   0.0088  -0.0536   0.0030   0.0264  -0.0019
  30 H1  :2px    0.0014  -0.0009   0.0002   0.0307  -0.0057   0.0362  -0.0002
  31 H1  :2py    0.0018  -0.0017  -0.0339  -0.0023  -0.0011  -0.0011   0.0291
  32 H1  :2pz   -0.0010   0.0439  -0.0016   0.0576   0.0270   0.0188   0.0013
  33 H2  :1s     0.0002  -0.0443  -0.0002  -0.0337   0.0030  -0.0715   0.0002
  34 H2  :1s     0.0010  -0.0547  -0.0003   0.0199   0.0233   0.0627  -0.0002
  35 H2  :1s     0.0026  -0.0506  -0.0002   0.0389   0.0225   0.1217  -0.0003
  36 H2  :2px   -0.0019   0.0585  -0.0006   0.0739   0.0723   0.1194  -0.0002
  37 H2  :2py    0.0597   0.0072   0.1784  -0.0038  -0.0058  -0.0101  -0.0056
  38 H2  :2pz    0.0086  -0.1582   0.0083   0.0805   0.1201   0.2074  -0.0011
  39 H2  :2px    0.0002  -0.0214   0.0000  -0.0054   0.0679   0.0483  -0.0002
  40 H2  :2py    0.0096   0.0026  -0.0374  -0.0009  -0.0024  -0.0027  -0.0055
  41 H2  :2pz    0.0028  -0.0524  -0.0021   0.0152   0.0516   0.0568  -0.0005
  42 O2  :1s     0.0003  -0.0196  -0.0001   0.0173   0.0032   0.0102  -0.0000
  43 O2  :1s     0.0006  -0.0289  -0.0001   0.0284   0.0007  -0.0130   0.0001
  44 O2  :1s     0.0005  -0.0171  -0.0000   0.0194  -0.0016  -0.0215   0.0001
  45 O2  :1s    -0.0002   0.0616   0.0004  -0.0347  -0.0103  -0.0295  -0.0000
  46 O2  :2px    0.0008   0.0392   0.0005   0.0067  -0.0452  -0.1254  -0.0021
  47 O2  :2py    0.1936  -0.0065   0.0291   0.0011   0.0004   0.0043  -0.2979
  48 O2  :2pz    0.0095   0.1466   0.0021  -0.0318  -0.0049  -0.1001  -0.0129
  49 O2  :2px    0.0003   0.0158   0.0004   0.0203  -0.0373  -0.1023  -0.0009
  50 O2  :2py    0.1429  -0.0062   0.0243   0.0004   0.0001   0.0036  -0.1390
  51 O2  :2pz    0.0076   0.1403   0.0019  -0.0175   0.0022  -0.0762  -0.0060
  52 O2  :2px    0.0001  -0.0535  -0.0005   0.0802  -0.0074   0.0100   0.0012
  53 O2  :2py   -0.0379  -0.0040  -0.0192  -0.0013  -0.0011  -0.0002   0.2125
  54 O2  :2pz   -0.0002   0.0993  -0.0004   0.0205   0.0272   0.0195   0.0093
  55 O2  :3d2-   0.1998  -0.0013  -0.0182  -0.0160  -0.0027   0.0099   0.2903
  56 O2  :3d1-   0.1833  -0.0226  -0.0333   0.0142   0.0014   0.0018   0.3375
  57 O2  :3d0    0.0180   0.3237  -0.0009  -0.1360   0.0544   0.0327   0.0259
  58 O2  :3d1+   0.0098   0.0562  -0.0009   0.4322   0.1057  -0.1995   0.0156
  59 O2  :3d2+   0.0103  -0.0564  -0.0023  -0.1641  -0.1492  -0.0494   0.0195
  60 O2  :3d2-   0.2929  -0.0016  -0.0127  -0.0160  -0.0029   0.0096   0.1307
  61 O2  :3d1-   0.2929  -0.0231  -0.0319   0.0141   0.0011  -0.0002   0.1545
  62 O2  :3d0    0.0275   0.3525  -0.0007  -0.1307   0.0462   0.0354   0.0119
  63 O2  :3d1+   0.0144   0.0793  -0.0004   0.4344   0.1059  -0.2078   0.0072
  64 O2  :3d2+   0.0164  -0.0983  -0.0024  -0.1722  -0.1297  -0.0149   0.0089
  65 H3  :1s     0.0864  -0.0043  -0.0161   0.0493   0.0235  -0.0209   0.0312
  66 H3  :1s     0.0464   0.0274  -0.0027  -0.0200  -0.0039  -0.0291  -0.0729
  67 H3  :1s     0.0172   0.0668   0.0098  -0.0537  -0.0263  -0.0065  -0.0497
  68 H3  :2px   -0.1657   0.0291  -0.0070  -0.0127   0.0356   0.0582   0.1413
  69 H3  :2py   -0.0105  -0.0303  -0.0091   0.0572   0.0117   0.0444   0.2388
  70 H3  :2pz   -0.1584  -0.1602  -0.0034   0.0364  -0.0091   0.0325   0.1680
  71 H3  :2px   -0.1004  -0.0133   0.0051   0.0166  -0.0098  -0.0035   0.0279
  72 H3  :2py   -0.0702  -0.0222   0.0004  -0.0282  -0.0064   0.0165   0.1430
  73 H3  :2pz   -0.1102   0.0071   0.0007  -0.0037   0.0042   0.0047   0.0368
  74 H4  :1s    -0.0879  -0.0044   0.0162   0.0492   0.0238  -0.0211  -0.0311
  75 H4  :1s    -0.0478   0.0273   0.0031  -0.0199  -0.0038  -0.0287   0.0731
  76 H4  :1s    -0.0164   0.0667  -0.0090  -0.0535  -0.0262  -0.0061   0.0493
  77 H4  :2px    0.1681   0.0303   0.0073  -0.0135   0.0347   0.0563  -0.1372
  78 H4  :2py   -0.0296   0.0437  -0.0086  -0.0597  -0.0115  -0.0469   0.2553
  79 H4  :2pz    0.1547  -0.1568   0.0010   0.0309  -0.0103   0.0273  -0.1466
  80 H4  :2px    0.0999  -0.0126  -0.0054   0.0172  -0.0099  -0.0040  -0.0258
  81 H4  :2py   -0.0824   0.0215   0.0006   0.0283   0.0062  -0.0160   0.1460
  82 H4  :2pz    0.1046   0.0092  -0.0006  -0.0012   0.0046   0.0032  -0.0241

    Orbital        22       23       24       25       26       27       28
   1 O1  :1s    -0.2061  -0.0873   0.8792  -0.2711   0.0007  -0.2436  -0.0589
   2 O1  :1s    -0.0852  -0.0587  -0.1598   0.1959  -0.0068  -0.0142   0.0826
   3 O1  :1s    -0.0894  -0.0727   0.0130   0.1175  -0.0061  -0.1052   0.0308
   4 O1  :1s     0.0440   0.0174  -0.0166  -0.0557   0.0018  -0.0179  -0.0610
   5 O1  :2px    0.1715  -0.0607   0.0510   0.0896  -0.0029  -0.1295   0.2346
   6 O1  :2py    0.0008  -0.0061   0.0036   0.0012  -0.5298   0.0019   0.0072
   7 O1  :2pz    0.0553   0.1583  -0.0752  -0.2873  -0.0146   0.1438  -0.1540
   8 O1  :2px    0.0074  -0.0226   0.0181   0.0318  -0.0010  -0.0143   0.1758
   9 O1  :2py    0.0016  -0.0029   0.0030   0.0004  -0.2863   0.0044   0.0039
  10 O1  :2pz    0.0068   0.0811  -0.0623  -0.1576  -0.0090   0.0137  -0.0748
  11 O1  :2px   -0.1407   0.0364  -0.0364  -0.0580   0.0023   0.1007  -0.2568
  12 O1  :2py    0.0014   0.0045  -0.0029   0.0001   0.4519  -0.0041  -0.0054
  13 O1  :2pz   -0.0740  -0.1207   0.0654   0.2227   0.0138  -0.0771   0.1184
  14 O1  :3d2-  -0.0102   0.0016  -0.0037  -0.0057   0.0195  -0.0018   0.0000
  15 O1  :3d1-  -0.0108  -0.0024  -0.0039   0.0019   0.0421  -0.0135   0.0030
  16 O1  :3d0    0.1202  -0.0022   0.0253   0.0100   0.0053   0.0489  -0.1445
  17 O1  :3d1+   0.1692  -0.0332   0.0718   0.1289  -0.0016   0.0581   0.0074
  18 O1  :3d2+   0.0065   0.0442   0.0375  -0.0206   0.0051   0.1711   0.1922
  19 O1  :3d2-   0.0013  -0.0008   0.0010   0.0008  -0.0438   0.0003  -0.0015
  20 O1  :3d1-  -0.0010   0.0012   0.0004   0.0001   0.0850   0.0042  -0.0023
  21 O1  :3d0   -0.0436  -0.0113  -0.0080   0.0140   0.0062  -0.0188   0.0873
  22 O1  :3d1+  -0.0192   0.0157  -0.0210  -0.0341  -0.0016  -0.0021   0.0079
  23 O1  :3d2+   0.0823  -0.0109   0.0056   0.0168   0.0037  -0.0793  -0.1009
  24 H1  :1s     0.0638  -0.0351  -0.0323   0.0441  -0.0029  -0.1468  -0.1605
  25 H1  :1s     0.0667  -0.0324  -0.0123   0.0273  -0.0026  -0.1147  -0.0245
  26 H1  :1s     0.1155   0.0843   0.0672  -0.1104   0.0066   0.1977  -0.0020
  27 H1  :2px   -0.3503   0.0872  -0.0153  -0.1099   0.0066   0.3133   0.2234
  28 H1  :2py   -0.0051  -0.0011   0.0012  -0.0007  -0.2004   0.0069   0.0009
  29 H1  :2pz    0.0900   0.0443  -0.0298  -0.0954  -0.0074  -0.0393  -0.0237
  30 H1  :2px   -0.0212  -0.0094  -0.0073   0.0369  -0.0016  -0.0172   0.0232
  31 H1  :2py   -0.0028   0.0027  -0.0031  -0.0021   0.2522  -0.0032  -0.0038
  32 H1  :2pz    0.0118  -0.0790   0.0583   0.1782   0.0061  -0.0349   0.0791
  33 H2  :1s    -0.0594  -0.0133  -0.0630  -0.0099  -0.0019  -0.1241  -0.0049
  34 H2  :1s    -0.0561  -0.0250  -0.0252   0.0133  -0.0021  -0.0912  -0.0234
  35 H2  :1s     0.0679   0.0675   0.0671  -0.1032   0.0067   0.2031  -0.0677
  36 H2  :2px    0.0098  -0.0427  -0.0057   0.0547  -0.0035  -0.1345   0.1091
  37 H2  :2py    0.0107   0.0024   0.0043  -0.0051  -0.1985   0.0129   0.0006
  38 H2  :2pz   -0.1935  -0.0347  -0.0897   0.0018  -0.0139  -0.1930  -0.0113
  39 H2  :2px   -0.1541   0.0718  -0.0581  -0.1595   0.0052   0.0915  -0.1730
  40 H2  :2py    0.0009  -0.0002  -0.0019   0.0050   0.2389  -0.0042  -0.0050
  41 H2  :2pz   -0.0382  -0.0060   0.0400   0.0019   0.0114  -0.0006   0.1085
  42 O2  :1s    -0.0383   0.8755   0.1370   0.3575  -0.0094  -0.1931   0.0601
  43 O2  :1s    -0.1439  -0.1367  -0.0875  -0.1188   0.0018   0.0069  -0.0306
  44 O2  :1s    -0.1442   0.0245  -0.0588  -0.0209  -0.0014  -0.0686   0.0112
  45 O2  :1s    -0.0208  -0.0218   0.0077   0.0436  -0.0013   0.0020   0.0320
  46 O2  :2px   -0.4054  -0.0266  -0.0283   0.2054  -0.0067   0.1019  -0.3292
  47 O2  :2py    0.0087  -0.0051   0.0087   0.0095  -0.1192   0.0155   0.0042
  48 O2  :2pz   -0.1240   0.1320  -0.1896  -0.3198  -0.0040  -0.2999  -0.0153
  49 O2  :2px   -0.2261  -0.0041  -0.0063   0.1066  -0.0033   0.0766  -0.2000
  50 O2  :2py    0.0041  -0.0036   0.0044   0.0048  -0.1192   0.0072   0.0039
  51 O2  :2pz   -0.0487   0.0910  -0.0963  -0.1903  -0.0034  -0.1179  -0.0431
  52 O2  :2px    0.1419   0.0256  -0.0063  -0.1677   0.0044  -0.0667   0.2805
  53 O2  :2py   -0.0052   0.0045  -0.0066  -0.0068   0.1681  -0.0132  -0.0047
  54 O2  :2pz    0.0768  -0.1208   0.1445   0.2766   0.0051   0.2156   0.0222
  55 O2  :3d2-   0.0035  -0.0029   0.0010  -0.0002  -0.2913  -0.0033  -0.0021
  56 O2  :3d1-   0.0036   0.0009   0.0019  -0.0026  -0.1244   0.0028  -0.0193
  57 O2  :3d0    0.1458  -0.0326  -0.0253   0.0232  -0.0124  -0.1704  -0.0359
  58 O2  :3d1+   0.0384   0.0761  -0.0102  -0.1375  -0.0072   0.1518  -0.0659
  59 O2  :3d2+  -0.3401   0.0377  -0.0011  -0.0381  -0.0032   0.2671   0.5021
  60 O2  :3d2-   0.0031  -0.0004   0.0009   0.0008   0.0482  -0.0004   0.0002
  61 O2  :3d1-  -0.0003  -0.0025   0.0013   0.0053   0.0503  -0.0005   0.0047
  62 O2  :3d0    0.0564   0.0266  -0.0216  -0.0706   0.0050  -0.0268   0.0200
  63 O2  :3d1+  -0.0370   0.0033  -0.0250  -0.0040   0.0013  -0.0444   0.0209
  64 O2  :3d2+  -0.0871   0.0105   0.0110   0.0223   0.0034   0.0420  -0.1504
  65 H3  :1s    -0.0404  -0.0552  -0.0278   0.0382   0.0725  -0.0947   0.0997
  66 H3  :1s    -0.0723  -0.0194  -0.0280   0.0243   0.0208  -0.0626   0.0376
  67 H3  :1s     0.0479   0.0737   0.0725   0.0025  -0.0501   0.2069  -0.0787
  68 H3  :2px    0.0178  -0.0106   0.0435   0.0978   0.0215   0.1003  -0.1380
  69 H3  :2py    0.1435   0.0462   0.0757  -0.0341  -0.1744   0.1848  -0.0727
  70 H3  :2pz    0.0674   0.0745  -0.0091  -0.1335  -0.0257   0.0142  -0.0367
  71 H3  :2px    0.0294   0.0334  -0.0120  -0.1502  -0.0911   0.0279   0.2514
  72 H3  :2py   -0.0592  -0.0245  -0.0558  -0.0130  -0.0288  -0.1397  -0.1333
  73 H3  :2pz    0.0215  -0.0615   0.0479   0.1140  -0.0165   0.1095  -0.0118
  74 H4  :1s    -0.0401  -0.0549  -0.0277   0.0350  -0.0782  -0.0915   0.1004
  75 H4  :1s    -0.0722  -0.0193  -0.0279   0.0232  -0.0247  -0.0619   0.0374
  76 H4  :1s     0.0475   0.0735   0.0724   0.0047   0.0577   0.2047  -0.0795
  77 H4  :2px    0.0145  -0.0106   0.0425   0.0963  -0.0261   0.1004  -0.1348
  78 H4  :2py   -0.1491  -0.0511  -0.0749   0.0354  -0.1867  -0.1781   0.0808
  79 H4  :2pz    0.0543   0.0704  -0.0159  -0.1300   0.0168  -0.0018  -0.0295
  80 H4  :2px    0.0298   0.0334  -0.0116  -0.1460   0.1015   0.0255   0.2515
  81 H4  :2py    0.0568   0.0295   0.0516   0.0039  -0.0241   0.1301   0.1296
  82 H4  :2pz    0.0264  -0.0593   0.0527   0.1159   0.0133   0.1207   0.0004

    Orbital        29       30       31       32       33       34       35
   1 O1  :1s     0.0294   0.0001  -0.0324  -0.0005   0.0010   0.0199  -0.0185
   2 O1  :1s    -0.0634  -0.0001  -0.0843  -0.0005   0.0004   0.0185   0.1609
   3 O1  :1s    -0.0249  -0.0000  -0.1012  -0.0010   0.0015   0.0390   0.0698
   4 O1  :1s     0.0501   0.0004   0.0725   0.0007  -0.0008  -0.0254  -0.1357
   5 O1  :2px   -0.2162  -0.0048  -0.2774  -0.0032  -0.0101  -0.2192  -0.0239
   6 O1  :2py   -0.0055  -0.1356   0.0074  -0.0589   0.0554   0.0010   0.0012
   7 O1  :2pz    0.1631  -0.0063  -0.1548  -0.0054  -0.0006  -0.0778  -0.0465
   8 O1  :2px   -0.1281  -0.0024  -0.1252  -0.0013  -0.0037  -0.0796  -0.0308
   9 O1  :2py   -0.0032  -0.0419   0.0077  -0.0201   0.0213  -0.0023   0.0017
  10 O1  :2pz    0.0783  -0.0022  -0.1582  -0.0032   0.0022   0.0237  -0.0337
  11 O1  :2px    0.1939   0.0035   0.2694   0.0029  -0.0073  -0.1553  -0.1416
  12 O1  :2py   -0.0001   0.1609  -0.0050   0.0429  -0.0133   0.0060  -0.0184
  13 O1  :2pz   -0.0580   0.0091   0.0959   0.0041  -0.0066  -0.1210   0.4005
  14 O1  :3d2-   0.0146  -0.7336  -0.0137  -0.2629  -0.0119   0.0005   0.0371
  15 O1  :3d1-  -0.0060  -0.3563  -0.0206  -0.1575   0.0479  -0.0030  -0.0317
  16 O1  :3d0    0.2308  -0.0259   0.2778  -0.0102   0.0100   0.1251   0.4972
  17 O1  :3d1+  -0.1806  -0.0370   0.4214  -0.0081  -0.0008  -0.0074  -0.6735
  18 O1  :3d2+  -0.2345  -0.0170   0.0215  -0.0062  -0.0055  -0.1827  -0.1874
  19 O1  :3d2-  -0.0016   0.0982   0.0065   0.0465  -0.0002  -0.0086  -0.0095
  20 O1  :3d1-   0.0022   0.0778   0.0147   0.0343  -0.0212  -0.0140   0.0203
  21 O1  :3d0   -0.0883   0.0048  -0.1464   0.0012   0.0065   0.1799  -0.2406
  22 O1  :3d1+   0.0343   0.0047  -0.1596   0.0003   0.0076   0.1629   0.1657
  23 O1  :3d2+   0.0935   0.0046  -0.0582   0.0005  -0.0017  -0.0103   0.0064
  24 H1  :1s     0.1219   0.0021  -0.0054  -0.0003   0.0020   0.0436  -0.0054
  25 H1  :1s     0.0293   0.0003  -0.0268  -0.0002   0.0020   0.0372  -0.0185
  26 H1  :1s    -0.0547  -0.0006   0.1093   0.0012  -0.0021  -0.0477  -0.0291
  27 H1  :2px   -0.1267   0.0004   0.1083   0.0026   0.0087   0.1884   0.0386
  28 H1  :2py    0.0024  -0.3039  -0.0073  -0.1110  -0.0148  -0.0330   0.0155
  29 H1  :2pz    0.0079  -0.0144   0.2128  -0.0027   0.0313   0.6851  -0.2793
  30 H1  :2px   -0.0617  -0.0013  -0.0551  -0.0009   0.0010   0.0251  -0.0970
  31 H1  :2py    0.0083  -0.1991  -0.0075  -0.0487  -0.0249   0.0015   0.0038
  32 H1  :2pz   -0.1432  -0.0105   0.1894  -0.0002  -0.0015  -0.0033  -0.0541
  33 H2  :1s     0.0241  -0.0007  -0.2174  -0.0027   0.0041   0.0886  -0.0699
  34 H2  :1s     0.0279   0.0004  -0.0025   0.0001  -0.0012  -0.0258   0.0086
  35 H2  :1s     0.0335   0.0014   0.3095   0.0038  -0.0078  -0.1752   0.0039
  36 H2  :2px   -0.0416  -0.0002   0.0184   0.0005   0.0360   0.7789   0.1486
  37 H2  :2py   -0.0009   0.1463   0.0141   0.0904   0.0005   0.0028   0.0103
  38 H2  :2pz    0.0146   0.0058  -0.3161   0.0002  -0.0002  -0.0039  -0.2849
  39 H2  :2px    0.2617   0.0036   0.1221   0.0012   0.0020   0.0407   0.1680
  40 H2  :2py    0.0021   0.3729  -0.0026   0.1274  -0.0451   0.0061  -0.0041
  41 H2  :2pz   -0.1276   0.0169   0.0007   0.0069  -0.0065  -0.0903   0.0986
  42 O2  :1s     0.0754   0.0007   0.0305   0.0004  -0.0007  -0.0185  -0.0015
  43 O2  :1s    -0.0689  -0.0005   0.0485   0.0004  -0.0008  -0.0134  -0.1178
  44 O2  :1s     0.0145   0.0004   0.0724   0.0008  -0.0016  -0.0353  -0.0778
  45 O2  :1s     0.0297   0.0003  -0.0314  -0.0002   0.0008   0.0181   0.0617
  46 O2  :2px   -0.1033   0.0004  -0.0397   0.0010  -0.0028  -0.0008  -0.1314
  47 O2  :2py    0.0120   0.0677  -0.0067   0.1721  -0.4051   0.0221  -0.0029
  48 O2  :2pz   -0.2492   0.0016   0.1054   0.0090  -0.0218  -0.0744   0.0999
  49 O2  :2px   -0.0886  -0.0004  -0.0554   0.0000  -0.0006   0.0159  -0.0368
  50 O2  :2py    0.0090   0.0309  -0.0013   0.0992  -0.1709   0.0071  -0.0008
  51 O2  :2pz   -0.1764  -0.0002   0.0043   0.0044  -0.0073   0.0131   0.0453
  52 O2  :2px    0.0296   0.0002   0.1405   0.0006  -0.0013  -0.0350   0.0328
  53 O2  :2py   -0.0062  -0.1087   0.0014  -0.2062   0.0419  -0.0020  -0.0073
  54 O2  :2pz    0.1266  -0.0040   0.0268  -0.0078   0.0026   0.0071   0.1007
  55 O2  :3d2-  -0.0152   0.3999   0.0225  -0.4881  -0.3803   0.0185   0.0038
  56 O2  :3d1-  -0.0416  -0.1853   0.0085   0.7429  -0.2152   0.0093   0.0330
  57 O2  :3d0    0.4259  -0.0102  -0.1730   0.0525  -0.0165  -0.0190  -0.3547
  58 O2  :3d1+   0.1748   0.0167  -0.4047  -0.0214  -0.0203  -0.0306   0.0037
  59 O2  :3d2+   0.2503  -0.0019  -0.0230   0.0240  -0.0141   0.0504  -0.1379
  60 O2  :3d2-   0.0034  -0.1495  -0.0066   0.0056  -0.0153  -0.0005   0.0004
  61 O2  :3d1-   0.0149  -0.0141   0.0027  -0.2148  -0.0530   0.0014  -0.0146
  62 O2  :3d0   -0.1415  -0.0026   0.0239  -0.0154  -0.0041   0.0083   0.1560
  63 O2  :3d1+  -0.0079  -0.0063   0.1916   0.0015  -0.0003   0.0118  -0.0463
  64 O2  :3d2+  -0.1118  -0.0036  -0.0660  -0.0103  -0.0018   0.0169   0.0282
  65 H3  :1s     0.1657  -0.0269   0.0841  -0.0655   0.0512  -0.0505  -0.0288
  66 H3  :1s     0.0601   0.0165   0.0033   0.0202   0.0088  -0.0130   0.0061
  67 H3  :1s    -0.1804   0.0117  -0.1701   0.0462  -0.0067   0.0934   0.0472
  68 H3  :2px   -0.0970  -0.0032  -0.0822  -0.2041  -0.3671   0.0860  -0.0165
  69 H3  :2py   -0.1611   0.1298  -0.1122   0.0747   0.5150   0.0522   0.0623
  70 H3  :2pz   -0.1157  -0.1027  -0.1079   0.2249  -0.3186   0.0403  -0.0744
  71 H3  :2px    0.0869   0.1318   0.0232  -0.1460  -0.1040  -0.0141   0.0646
  72 H3  :2py   -0.1383  -0.0197   0.1421  -0.0644   0.0710  -0.0690   0.0420
  73 H3  :2pz    0.2380  -0.0600  -0.0858   0.2209  -0.0522   0.0291  -0.0737
  74 H4  :1s     0.1662   0.0306   0.0821   0.0676  -0.0550  -0.0456  -0.0274
  75 H4  :1s     0.0604  -0.0154   0.0040  -0.0203  -0.0099  -0.0122   0.0054
  76 H4  :1s    -0.1808  -0.0164  -0.1680  -0.0502   0.0139   0.0923   0.0452
  77 H4  :2px   -0.0961   0.0024  -0.0846   0.2032   0.3807   0.0509  -0.0194
  78 H4  :2py    0.1710   0.1251   0.1179   0.0939   0.4729  -0.1010  -0.0506
  79 H4  :2pz   -0.1031   0.1119  -0.0946  -0.2212   0.3634   0.0018  -0.0773
  80 H4  :2px    0.0913  -0.1318   0.0180   0.1454   0.1027  -0.0226   0.0635
  81 H4  :2py    0.1154  -0.0233  -0.1327  -0.0514   0.0695   0.0602  -0.0381
  82 H4  :2pz    0.2469   0.0616  -0.0921  -0.2287   0.0621   0.0293  -0.0767

    Orbital        36       37       38       39       40       41       42
   1 O1  :1s    -0.0001   0.0002  -0.0106   0.0185   0.0081   0.0040  -0.0003
   2 O1  :1s    -0.0002   0.0022   0.1312   0.1054   0.2341  -0.1941   0.0015
   3 O1  :1s    -0.0004   0.0017   0.0507   0.0949   0.1034  -0.0370  -0.0009
   4 O1  :1s    -0.0002  -0.0012  -0.0873  -0.0674  -0.1583   0.0654   0.0004
   5 O1  :2px    0.0020  -0.0012  -0.0265  -0.1135  -0.0947  -0.0629   0.0054
   6 O1  :2py   -0.2423  -0.3222   0.0146   0.0103  -0.0000  -0.0000   0.0027
   7 O1  :2pz   -0.0113  -0.0192  -0.2540  -0.1912   0.0398   0.0288   0.0051
   8 O1  :2px    0.0009  -0.0003  -0.0321  -0.0707   0.0762   0.0119  -0.0062
   9 O1  :2py   -0.1557  -0.0698   0.0052   0.0005   0.0013  -0.0091  -0.0098
  10 O1  :2pz   -0.0077  -0.0042  -0.1024  -0.0201  -0.0216   0.1771  -0.0074
  11 O1  :2px   -0.0012   0.0033  -0.0086   0.1734   0.0874   0.0575  -0.0019
  12 O1  :2py   -0.2749   0.1987  -0.0196  -0.0091  -0.0010   0.0046  -0.0515
  13 O1  :2pz   -0.0136   0.0112   0.3556   0.1542  -0.0087  -0.1186  -0.0036
  14 O1  :3d2-   0.3216   0.4758  -0.0037  -0.0204  -0.0101   0.0049  -0.1305
  15 O1  :3d1-  -0.8886   0.0278  -0.0236   0.0133   0.0573  -0.0475   0.0378
  16 O1  :3d0   -0.0768   0.0001   0.2275   0.0092  -0.2870   0.3689  -0.0075
  17 O1  :3d1+   0.0153   0.0312   0.0109   0.3337   0.0606  -0.1176  -0.0150
  18 O1  :3d2+  -0.0468  -0.0062   0.0378  -0.3047  -0.6449   0.2782  -0.0019
  19 O1  :3d2-  -0.1520  -0.1501   0.0050   0.0139   0.0077  -0.0075  -0.2411
  20 O1  :3d1-   0.3571   0.0752   0.0197  -0.0103  -0.0564   0.0387  -0.3013
  21 O1  :3d0    0.0311   0.0072  -0.1884  -0.0798   0.2720  -0.3236  -0.0164
  22 O1  :3d1+  -0.0072  -0.0115  -0.0886  -0.2265  -0.0612   0.1150  -0.0077
  23 O1  :3d2+   0.0179   0.0090  -0.0714   0.3334   0.6194  -0.2245  -0.0084
  24 H1  :1s    -0.0009   0.0014  -0.0199   0.1593  -0.0227   0.0833   0.0005
  25 H1  :1s     0.0001  -0.0011  -0.0442  -0.0340  -0.1105   0.0369  -0.0005
  26 H1  :1s     0.0007  -0.0012  -0.0149  -0.1105  -0.0073  -0.0669   0.0037
  27 H1  :2px   -0.0004  -0.0023   0.0451  -0.2109   0.1329  -0.2280  -0.0008
  28 H1  :2py    0.3526   0.2848  -0.0007  -0.0043   0.0053   0.0073  -0.5569
  29 H1  :2pz    0.0170   0.0156  -0.0149   0.0510  -0.1462  -0.2562  -0.0256
  30 H1  :2px   -0.0001  -0.0007   0.0023   0.0317  -0.1548   0.1412   0.0014
  31 H1  :2py    0.0421   0.1416  -0.0068  -0.0053  -0.0057  -0.0076   0.3941
  32 H1  :2pz    0.0009   0.0099   0.1097   0.1191   0.1033   0.2246   0.0131
  33 H2  :1s    -0.0001  -0.0001  -0.1162  -0.0091   0.0078   0.1168  -0.0046
  34 H2  :1s    -0.0003   0.0004   0.0477   0.0481  -0.0835  -0.0023  -0.0004
  35 H2  :1s     0.0003  -0.0011   0.0580  -0.0791  -0.0594  -0.2194   0.0094
  36 H2  :2px   -0.0002  -0.0019   0.0421  -0.1236  -0.1879   0.0149   0.0004
  37 H2  :2py    0.5068  -0.2823   0.0158   0.0005   0.0023  -0.0137   0.6441
  38 H2  :2pz    0.0245  -0.0127  -0.2358   0.0588   0.0283   0.3816   0.0157
  39 H2  :2px   -0.0006   0.0006   0.0158   0.0725   0.2081  -0.0682  -0.0030
  40 H2  :2py    0.0625   0.2239  -0.0117  -0.0011  -0.0026   0.0178  -0.4252
  41 H2  :2pz    0.0038   0.0109   0.1963  -0.0150  -0.0096  -0.4465  -0.0051
  42 O2  :1s     0.0001  -0.0004  -0.0188  -0.0085  -0.0062   0.0050   0.0003
  43 O2  :1s    -0.0011   0.0020   0.2012   0.0219   0.0329   0.2146   0.0043
  44 O2  :1s    -0.0005   0.0003   0.0682  -0.0067  -0.0111   0.0738   0.0019
  45 O2  :1s     0.0004  -0.0009  -0.1092   0.0079   0.0185  -0.0662  -0.0039
  46 O2  :2px   -0.0010   0.0005   0.0939  -0.3539  -0.0615  -0.1884   0.0027
  47 O2  :2py   -0.0919   0.2086  -0.0033  -0.0092   0.0020  -0.0018  -0.0226
  48 O2  :2pz   -0.0044   0.0098  -0.0042   0.2351  -0.0847   0.0671  -0.0003
  49 O2  :2px   -0.0004   0.0032   0.1073  -0.0773   0.0966   0.0650  -0.0006
  50 O2  :2py   -0.0188   0.1625  -0.0028  -0.0038  -0.0041  -0.0043   0.0646
  51 O2  :2pz   -0.0010   0.0080   0.0063   0.1097   0.0428   0.1175   0.0027
  52 O2  :2px    0.0009  -0.0031  -0.0313  -0.1630   0.0764  -0.0185  -0.0023
  53 O2  :2py    0.0832  -0.4398   0.0211   0.0068   0.0009   0.0020  -0.0744
  54 O2  :2pz    0.0052  -0.0246  -0.3532  -0.1020   0.0438  -0.0687  -0.0032
  55 O2  :3d2-  -0.1120   0.3235  -0.0109  -0.0282   0.0209   0.0186  -0.0017
  56 O2  :3d1-  -0.0784   0.1059  -0.0595  -0.0023   0.0055  -0.0065  -0.0105
  57 O2  :3d0   -0.0081   0.0181   0.6926  -0.2759   0.0248  -0.0088   0.0007
  58 O2  :3d1+  -0.0064   0.0128   0.0763   0.4182  -0.4999  -0.5279  -0.0035
  59 O2  :3d2+  -0.0061   0.0086   0.1252   0.4273  -0.1056   0.2475   0.0056
  60 O2  :3d2-   0.0990  -0.2418   0.0043   0.0144  -0.0137  -0.0177   0.2937
  61 O2  :3d1-   0.0549  -0.3529   0.0220  -0.0055   0.0028   0.0071  -0.3373
  62 O2  :3d0    0.0049  -0.0308  -0.2504   0.1334   0.0210  -0.1031  -0.0277
  63 O2  :3d1+   0.0052  -0.0126  -0.0425  -0.2592   0.3602   0.5083   0.0159
  64 O2  :3d2+   0.0036  -0.0174   0.0419  -0.0465  -0.0482  -0.1384  -0.0143
  65 H3  :1s     0.0189  -0.1361  -0.0758  -0.0226  -0.0340  -0.0286  -0.0291
  66 H3  :1s    -0.0211   0.0837  -0.0074   0.0367  -0.0055  -0.0228   0.0259
  67 H3  :1s    -0.0041   0.1187   0.0852   0.0645   0.1492   0.1150   0.0440
  68 H3  :2px    0.0165   0.1488  -0.0147   0.4172  -0.2255   0.2323   0.4921
  69 H3  :2py   -0.0257   0.3613   0.0318  -0.0169   0.2229   0.1934   0.0665
  70 H3  :2pz   -0.0012  -0.1453   0.4322  -0.0655   0.0968  -0.0749  -0.3325
  71 H3  :2px   -0.0177   0.0169  -0.0617   0.0452   0.1324  -0.0604  -0.3604
  72 H3  :2py    0.0439  -0.1990  -0.1490  -0.0874  -0.2301  -0.2662  -0.0695
  73 H3  :2pz   -0.0319   0.0462  -0.1644  -0.1214  -0.0566  -0.0484   0.1753
  74 H4  :1s    -0.0187   0.1330  -0.0786  -0.0224  -0.0364  -0.0273   0.0288
  75 H4  :1s     0.0209  -0.0835  -0.0053   0.0374  -0.0029  -0.0233  -0.0303
  76 H4  :1s     0.0037  -0.1134   0.0875   0.0642   0.1510   0.1134  -0.0491
  77 H4  :2px   -0.0178  -0.1453  -0.0097   0.4166  -0.2218   0.2211  -0.4831
  78 H4  :2py   -0.0252   0.3435  -0.0767   0.0168  -0.2324  -0.1871   0.0486
  79 H4  :2pz   -0.0035   0.1879   0.4207  -0.0648   0.0713  -0.0875   0.3376
  80 H4  :2px    0.0186  -0.0186  -0.0592   0.0472   0.1320  -0.0510   0.3501
  81 H4  :2py    0.0390  -0.1868   0.1686   0.0980   0.2375   0.2687  -0.0644
  82 H4  :2pz    0.0366  -0.0686  -0.1480  -0.1116  -0.0337  -0.0257  -0.1821

    Orbital        43       44       45       46       47       48       49
   1 O1  :1s    -0.0106   0.0002  -0.0001   0.0034  -0.0263   0.0194  -0.0280
   2 O1  :1s    -0.0070   0.0009  -0.0007   0.0293  -0.2198   0.0586  -0.2278
   3 O1  :1s    -0.0493   0.0007  -0.0006   0.0137  -0.1054   0.0968  -0.0701
   4 O1  :1s     0.0460  -0.0011   0.0006  -0.0102   0.0822  -0.0399   0.1097
   5 O1  :2px    0.1486   0.0003   0.0023   0.0106  -0.0796   0.2958  -0.0292
   6 O1  :2py   -0.0128  -0.3882  -0.4317  -0.3862  -0.0620   0.0028  -0.0105
   7 O1  :2pz    0.2643  -0.0231  -0.0201  -0.0351   0.1344  -0.1048   0.1891
   8 O1  :2px   -0.2044   0.0025  -0.0009  -0.0190   0.1423  -0.4576  -0.1057
   9 O1  :2py    0.0097  -0.0242   0.0132   0.0524   0.0041   0.0040   0.0019
  10 O1  :2pz   -0.2048   0.0012  -0.0006  -0.0098   0.0834  -0.0977  -0.0455
  11 O1  :2px   -0.0510  -0.0011   0.0000  -0.0030   0.0267  -0.0158   0.1077
  12 O1  :2py    0.0077   0.1300   0.0684   0.2590   0.0472  -0.0062   0.0107
  13 O1  :2pz   -0.1518   0.0085   0.0029   0.0398  -0.2198   0.1784  -0.1579
  14 O1  :3d2-   0.0190  -0.2169  -0.1960   0.2719   0.0404   0.0093   0.0018
  15 O1  :3d1-   0.0351   0.1639   0.2203   0.1905   0.0247   0.0042  -0.0020
  16 O1  :3d0   -0.3307   0.0182   0.0173  -0.0104   0.1883  -0.1593   0.1028
  17 O1  :3d1+  -0.4097  -0.0074  -0.0122   0.0181  -0.0673  -0.0654  -0.0175
  18 O1  :3d2+  -0.1607   0.0099   0.0128   0.0458  -0.2802   0.2231  -0.1418
  19 O1  :3d2-   0.0055   0.6754   0.4163  -0.6097  -0.0792  -0.0249   0.0183
  20 O1  :3d1-  -0.0305  -0.3980  -0.5562  -0.6344  -0.1020   0.0108  -0.0111
  21 O1  :3d0    0.3680  -0.0398  -0.0463  -0.0486  -0.0287  -0.1194   0.0149
  22 O1  :3d1+   0.2105   0.0333   0.0243  -0.0128  -0.1068   0.3477  -0.3809
  23 O1  :3d2+   0.1643  -0.0251  -0.0320  -0.0670   0.2751  -0.0833   0.1530
  24 H1  :1s     0.0373  -0.0006  -0.0002   0.0020  -0.0228   0.3115   0.1303
  25 H1  :1s     0.0009  -0.0005   0.0004  -0.0014   0.0100   0.0384  -0.0512
  26 H1  :1s     0.1620  -0.0012   0.0005  -0.0129   0.1079  -0.1327   0.0247
  27 H1  :2px   -0.1613  -0.0011  -0.0019  -0.0080   0.0660  -0.4817  -0.2290
  28 H1  :2py    0.0240   0.8399   0.4462  -0.1428   0.0024  -0.0291   0.0193
  29 H1  :2pz   -0.0909   0.0435   0.0229   0.0457  -0.4314   0.5776  -0.3538
  30 H1  :2px    0.0693   0.0007   0.0004  -0.0083   0.0454   0.1637   0.4026
  31 H1  :2py   -0.0066  -0.3018   0.0075   0.0339  -0.0126   0.0215  -0.0047
  32 H1  :2pz   -0.0954  -0.0143  -0.0008  -0.0400   0.3436  -0.4656   0.0723
  33 H2  :1s    -0.1267   0.0011  -0.0005  -0.0038   0.0247  -0.0409  -0.0269
  34 H2  :1s    -0.0536   0.0005  -0.0004   0.0093  -0.0786   0.0963   0.0614
  35 H2  :1s     0.3077  -0.0030   0.0014  -0.0003   0.0200  -0.0231   0.0587
  36 H2  :2px    0.1393  -0.0024  -0.0011  -0.0408   0.3061  -0.4259   0.4905
  37 H2  :2py    0.0049   0.2111   0.4361   0.7570   0.1017   0.0063   0.0152
  38 H2  :2pz   -0.5128   0.0156   0.0203   0.0247   0.0838  -0.0639  -0.2479
  39 H2  :2px   -0.2066   0.0020  -0.0004   0.0451  -0.3512   0.2941  -0.4993
  40 H2  :2py   -0.0073   0.0379  -0.0634  -0.1664  -0.0077  -0.0104  -0.0130
  41 H2  :2pz    0.3954  -0.0009  -0.0024   0.0300  -0.2906   0.2490   0.2294
  42 O2  :1s     0.0140  -0.0000   0.0001   0.0026  -0.0207   0.0055   0.0790
  43 O2  :1s     0.1920  -0.0009   0.0003   0.0168  -0.1355   0.0682   0.5540
  44 O2  :1s     0.0782  -0.0002   0.0003   0.0104  -0.0819   0.0117   0.2491
  45 O2  :1s    -0.1731   0.0012  -0.0007  -0.0038   0.0262  -0.0018  -0.1824
  46 O2  :2px   -0.1295   0.0014  -0.0005  -0.0223   0.1161   0.2102   0.5820
  47 O2  :2py   -0.0037   0.0797  -0.1657   0.1423   0.0368   0.0173  -0.0070
  48 O2  :2pz    0.1361   0.0017  -0.0074   0.0666  -0.3950  -0.3788   0.1059
  49 O2  :2px   -0.0475  -0.0014   0.0031  -0.0004  -0.0153   0.0502  -0.2116
  50 O2  :2py   -0.0029  -0.2536   0.4361  -0.2607  -0.0364  -0.0117   0.0020
  51 O2  :2pz    0.0254  -0.0110   0.0190  -0.0143   0.0145   0.1599  -0.0615
  52 O2  :2px   -0.0164   0.0008  -0.0012  -0.0053   0.0525  -0.1693  -0.0265
  53 O2  :2py    0.0031   0.0768  -0.1502   0.0694  -0.0010   0.0007   0.0099
  54 O2  :2pz   -0.0442   0.0042  -0.0068  -0.0278   0.2187   0.0502  -0.1925
  55 O2  :3d2-   0.0046   0.0316  -0.2185   0.2850   0.0298   0.0075  -0.0027
  56 O2  :3d1-  -0.0218   0.1439  -0.2802   0.1677   0.0074   0.0124   0.0241
  57 O2  :3d0    0.1423   0.0092  -0.0217   0.0213  -0.0186  -0.3023  -0.2923
  58 O2  :3d1+  -0.2106   0.0034  -0.0120   0.0045   0.0780  -0.1794   0.1189
  59 O2  :3d2+   0.3124   0.0057  -0.0159  -0.0426   0.3796   0.3372  -0.0105
  60 O2  :3d2-  -0.0172   0.2957  -0.0027  -0.5525  -0.0759  -0.0168   0.0189
  61 O2  :3d1-   0.0286  -0.2193   0.2685   0.0733  -0.0130  -0.0353  -0.0116
  62 O2  :3d0   -0.3154  -0.0128   0.0204  -0.0706   0.4599   0.7356   0.3505
  63 O2  :3d1+   0.3852   0.0092   0.0021  -0.0360   0.0920   0.2910  -0.4417
  64 O2  :3d2+  -0.1091  -0.0055   0.0110   0.0456  -0.3160  -0.4901  -0.2979
  65 H3  :1s    -0.0046   0.0907  -0.1348   0.0664  -0.0213   0.0101   0.1007
  66 H3  :1s    -0.1119  -0.0798   0.0735   0.0140  -0.0843  -0.0134   0.0404
  67 H3  :1s    -0.0814  -0.1016   0.1357  -0.0927   0.0209  -0.0089  -0.1437
  68 H3  :2px    0.4338   0.0695   0.1282  -0.4476  -0.0648  -0.1590  -0.3499
  69 H3  :2py   -0.0966  -0.1418   0.2091  -0.0433  -0.3410  -0.0116   0.2502
  70 H3  :2pz   -0.1480  -0.4092   0.4527  -0.0123   0.5224   0.3229  -0.1574
  71 H3  :2px   -0.2470   0.1093  -0.2212   0.3386  -0.0513  -0.0667  -0.0862
  72 H3  :2py    0.1107   0.1692  -0.1704  -0.0503   0.4303  -0.0780  -0.5093
  73 H3  :2pz    0.0128   0.4058  -0.4902   0.0616  -0.1674   0.0040   0.0339
  74 H4  :1s    -0.0063  -0.0903   0.1350  -0.0588  -0.0381   0.0084   0.1002
  75 H4  :1s    -0.1104   0.0813  -0.0743   0.0087  -0.0856  -0.0140   0.0392
  76 H4  :1s    -0.0785   0.1037  -0.1361   0.0814   0.0451  -0.0065  -0.1411
  77 H4  :2px    0.4472  -0.0795  -0.1252   0.4639   0.0660  -0.1407  -0.3450
  78 H4  :2py    0.0994  -0.1777   0.2503  -0.1244   0.2718  -0.0155  -0.2292
  79 H4  :2pz   -0.1427   0.3984  -0.4342  -0.1503   0.5303   0.3176  -0.1802
  80 H4  :2px   -0.2603  -0.1019   0.2175  -0.3139  -0.1483  -0.0806  -0.0870
  81 H4  :2py   -0.1039   0.2089  -0.2172   0.0660  -0.4107   0.0764   0.5029
  82 H4  :2pz    0.0033  -0.3895   0.4748  -0.0091  -0.2138   0.0144   0.0815

    Orbital        50       51       52       53       54       55       56
   1 O1  :1s    -0.0100   0.0007  -0.0364   0.0002   0.0590  -0.1597  -0.0003
   2 O1  :1s    -0.0449   0.0042  -0.2563  -0.0018   0.2942  -0.9553  -0.0013
   3 O1  :1s    -0.0589   0.0021  -0.0683   0.0041   0.2458  -0.2779  -0.0010
   4 O1  :1s    -0.0603  -0.0047   0.4088   0.0102  -0.1269   0.3070   0.0019
   5 O1  :2px    0.5175   0.0001   0.0892  -0.0048  -0.3185  -0.1933   0.0001
   6 O1  :2py    0.0128  -0.2382  -0.0250  -0.2936  -0.0173   0.0087   0.9719
   7 O1  :2pz   -0.2535  -0.0151   0.5797   0.0223   0.5693  -0.1229   0.0530
   8 O1  :2px    0.0464  -0.0047   0.2927   0.0098  -0.0118   0.1016   0.0067
   9 O1  :2py   -0.0128   0.2405   0.0235   0.3205   0.0015   0.0118  -1.2064
  10 O1  :2pz    0.2874   0.0160  -0.5338  -0.0120  -0.3107  -0.2997  -0.0652
  11 O1  :2px   -0.4422   0.0040  -0.4465  -0.0145   0.0564  -0.0835  -0.0088
  12 O1  :2py    0.0015  -0.2789   0.0103  -0.5028   0.0174  -0.0356   1.1570
  13 O1  :2pz   -0.0814  -0.0153  -0.0349  -0.0228   0.0384   0.7855   0.0580
  14 O1  :3d2-  -0.0109   0.1120  -0.0164   0.0024  -0.0097   0.0086   0.1555
  15 O1  :3d1-  -0.0162   0.1376  -0.0145   0.1241  -0.0172   0.0345  -0.0626
  16 O1  :3d0    0.4229   0.0109   0.2322   0.0184   0.0042  -0.3744  -0.0027
  17 O1  :3d1+   0.2014   0.0028   0.3318   0.0174   0.1976  -0.1703   0.0101
  18 O1  :3d2+  -0.3705   0.0086  -0.1308   0.0087   0.2459  -0.0530  -0.0067
  19 O1  :3d2-  -0.0070  -0.3645   0.0374  -0.1275   0.0404  -0.0134  -0.3207
  20 O1  :3d1-   0.0321  -0.2507   0.0236  -0.2106   0.0156  -0.0495  -0.0448
  21 O1  :3d0   -0.7539  -0.0216  -0.2470  -0.0227   0.1090   0.5496  -0.0087
  22 O1  :3d1+   0.1437  -0.0125  -0.7449  -0.0514  -0.7085   0.2665  -0.0160
  23 O1  :3d2+   0.6247  -0.0111  -0.0323  -0.0216  -0.3805   0.0544   0.0031
  24 H1  :1s    -0.0409   0.0009   0.0487   0.0058   0.1952   0.0122  -0.0017
  25 H1  :1s    -0.0471  -0.0046   0.3870   0.0099  -0.1360   0.3777   0.0017
  26 H1  :1s     0.2137   0.0034  -0.2327  -0.0113  -0.1823  -0.2228  -0.0002
  27 H1  :2px    0.4613  -0.0051   0.4265   0.0035  -0.5065   0.0537   0.0063
  28 H1  :2py   -0.0141  -0.2593   0.0194  -0.2330   0.0160  -0.0016   0.1957
  29 H1  :2pz    0.3084  -0.0108  -0.2440  -0.0246  -0.1924   0.0673   0.0116
  30 H1  :2px    0.1556   0.0031  -0.1244   0.0006   0.2043   0.0660   0.0031
  31 H1  :2py    0.0153   0.0430   0.0097   0.2173   0.0115  -0.0033  -0.7524
  32 H1  :2pz   -0.3469   0.0034  -0.3391  -0.0113  -0.3187   0.0166  -0.0408
  33 H2  :1s    -0.0129   0.0001   0.0138   0.0023   0.0711  -0.0289  -0.0011
  34 H2  :1s    -0.0373  -0.0037   0.4584   0.0178   0.0907   0.2206   0.0015
  35 H2  :1s     0.0785   0.0027  -0.4540  -0.0253  -0.3366  -0.1671  -0.0018
  36 H2  :2px   -0.2706  -0.0002   0.1123   0.0145   0.3887  -0.2759  -0.0032
  37 H2  :2py   -0.0219  -0.0122   0.0024  -0.0532   0.0033   0.0206   0.3229
  38 H2  :2pz    0.4236   0.0006  -0.0213  -0.0021   0.0176  -0.4094   0.0194
  39 H2  :2px   -0.1402  -0.0036   0.3494   0.0181   0.2074   0.1316   0.0025
  40 H2  :2py   -0.0058   0.4642  -0.0338   0.3874  -0.0352   0.0438  -0.2426
  41 H2  :2pz    0.1925   0.0213   0.6018   0.0480   0.3577  -0.8898  -0.0088
  42 O2  :1s     0.0006   0.0007  -0.0837  -0.0042  -0.0192  -0.0709   0.0002
  43 O2  :1s     0.0640   0.0051  -0.5112  -0.0246  -0.0849  -0.3812   0.0011
  44 O2  :1s    -0.0502   0.0017  -0.2131  -0.0106  -0.0470  -0.2513   0.0003
  45 O2  :1s    -0.2184  -0.0046   0.3289   0.0084  -0.1642   0.2613  -0.0002
  46 O2  :2px    0.4891   0.0079   0.0309   0.0003  -0.1470   0.3683   0.0071
  47 O2  :2py   -0.0195   0.3744   0.0174  -0.1065  -0.0160  -0.0276   0.5410
  48 O2  :2pz    0.3064   0.0199  -0.2856  -0.0027   0.4644   0.5945   0.0194
  49 O2  :2px   -0.3940  -0.0030   0.0598   0.0049   0.2405  -0.0751  -0.0068
  50 O2  :2py    0.0108   0.1894  -0.0186  -0.0247   0.0193   0.0133  -0.1288
  51 O2  :2pz   -0.1941   0.0040   0.4644   0.0048  -0.4926  -0.3122  -0.0015
  52 O2  :2px    0.0643  -0.0026   0.0831  -0.0042  -0.3923   0.0463   0.0056
  53 O2  :2py    0.0040  -0.4791   0.0122   0.0777  -0.0161  -0.0078   0.0390
  54 O2  :2pz   -0.0758  -0.0193  -0.4523  -0.0059   0.4298   0.1607  -0.0012
  55 O2  :3d2-   0.0038  -0.5105   0.0166  -0.3310   0.0108  -0.0042  -0.3658
  56 O2  :3d1-  -0.0146  -0.6025  -0.0202   0.4476  -0.0277  -0.0215  -0.0969
  57 O2  :3d0    0.0995  -0.0457  -0.0469   0.0368   0.1289   0.1154  -0.0077
  58 O2  :3d1+  -0.0508  -0.0262  -0.1746  -0.0203  -0.0938  -0.0069  -0.0176
  59 O2  :3d2+   0.2073  -0.0332   0.0869   0.0236   0.1828   0.2662  -0.0114
  60 O2  :3d2-   0.0015   0.7452  -0.0426   0.8581  -0.0187   0.0232   0.6131
  61 O2  :3d1-   0.0570   0.8935   0.0329  -0.9459   0.0757   0.0542  -0.1575
  62 O2  :3d0   -0.4188   0.0656   0.1083  -0.0805  -0.3285  -0.2839  -0.0111
  63 O2  :3d1+  -0.0153   0.0371   0.3023   0.0432   0.0841  -0.2902   0.0300
  64 O2  :3d2+  -0.5845   0.0452  -0.0034  -0.0478  -0.6229  -0.6450   0.0089
  65 H3  :1s    -0.0810  -0.0233  -0.0678  -0.0027  -0.0556  -0.0406   0.0599
  66 H3  :1s    -0.2474  -0.1533   0.2666  -0.0052  -0.3064   0.1835   0.1072
  67 H3  :1s     0.1475   0.1429  -0.2300   0.0321   0.4973  -0.0796  -0.1986
  68 H3  :2px   -0.0476   0.1324   0.2426   0.0658  -0.2791  -0.0342   0.2203
  69 H3  :2py    0.1512   0.3186   0.1716  -0.0612   0.0873   0.4662   0.2750
  70 H3  :2pz   -0.2431   0.1664   0.0619  -0.1367  -0.0398   0.0685   0.1166
  71 H3  :2px   -0.0969   0.5134  -0.2510   0.7935   0.3552  -0.1189   0.3248
  72 H3  :2py    0.3319   0.1048  -0.0448   0.0574   0.4394   0.0927  -0.1358
  73 H3  :2pz    0.1713   0.6424   0.3047  -0.7798  -0.0254  -0.1553  -0.2361
  74 H4  :1s    -0.0814   0.0237  -0.0677  -0.0068  -0.0559  -0.0411  -0.0595
  75 H4  :1s    -0.2487   0.1445   0.2688   0.0086  -0.3075   0.1841  -0.1078
  76 H4  :1s     0.1470  -0.1349  -0.2329  -0.0214   0.5001  -0.0808   0.1974
  77 H4  :2px   -0.0468  -0.1330   0.2435  -0.0631  -0.2733  -0.0421  -0.2081
  78 H4  :2py   -0.1324   0.3349  -0.1714  -0.0927  -0.0746  -0.4688   0.2937
  79 H4  :2pz   -0.2557  -0.1426   0.0349   0.1274  -0.0546   0.0276  -0.0920
  80 H4  :2px   -0.0906  -0.5093  -0.1957  -0.7906   0.3848  -0.1195  -0.3313
  81 H4  :2py   -0.3450   0.1632   0.0266  -0.0255  -0.4428  -0.0755  -0.1513
  82 H4  :2pz    0.1447  -0.6309   0.2379   0.8026  -0.1027  -0.1683   0.2276

    Orbital        57       58       59       60       61       62       63
   1 O1  :1s     0.0811  -0.0773   0.0035  -0.1291   0.0040   0.0001  -0.0527
   2 O1  :1s     0.4837  -0.4310   0.0199  -0.7140   0.0222   0.0035  -0.2869
   3 O1  :1s     0.0289  -0.1771   0.0039  -0.2933   0.0041  -0.0400  -0.1137
   4 O1  :1s    -0.0940   0.2452  -0.0070   0.4111   0.0055   0.2775   0.0410
   5 O1  :2px    0.2748  -0.9005   0.0114   1.0343  -0.0658  -0.6712   0.6577
   6 O1  :2py    0.0314   0.0501   0.4146   0.0218   0.0330   0.0180   0.0165
   7 O1  :2pz   -0.6216  -0.9470   0.0209  -0.3665  -0.0218  -0.4440  -0.2415
   8 O1  :2px   -0.4869   0.5398  -0.0134  -0.7190   0.0653   0.7801  -0.8629
   9 O1  :2py   -0.0386  -0.0305  -0.6155  -0.0107  -0.0963  -0.0061  -0.0189
  10 O1  :2pz    0.7674   0.4839  -0.0195   0.1776   0.0178   0.2900   0.2281
  11 O1  :2px    0.6035  -0.1825   0.0148   0.4288  -0.0181  -0.1758   0.2569
  12 O1  :2py    0.0451   0.0129  -0.1574  -0.0023  -0.8636   0.0825  -0.0029
  13 O1  :2pz   -0.6594  -0.2991  -0.0141  -0.1876  -0.0748  -0.6730  -0.3015
  14 O1  :3d2-   0.0004   0.0167   0.2738  -0.0007   0.1467  -0.0029   0.0010
  15 O1  :3d1-  -0.0088   0.0249   0.2267   0.0093   0.2318  -0.0159   0.0085
  16 O1  :3d0   -0.0256  -0.2784   0.0205   0.0821   0.0189   0.0419  -0.0172
  17 O1  :3d1+  -0.1240  -0.2463   0.0146   0.0149   0.0009  -0.1072   0.0083
  18 O1  :3d2+   0.0975   0.0317   0.0137  -0.2538   0.0165  -0.0217  -0.0511
  19 O1  :3d2-   0.0162  -0.0109  -0.6724  -0.0042  -0.3765   0.0118   0.0074
  20 O1  :3d1-   0.0169  -0.0118  -0.5989  -0.0113  -0.5480   0.0640  -0.0176
  21 O1  :3d0    0.1338   0.0213  -0.0439   0.0423  -0.0706  -0.4815   0.1598
  22 O1  :3d1+  -0.0398   0.0325  -0.0383  -0.0415  -0.0098   0.2072  -0.2591
  23 O1  :3d2+  -0.3050   0.0448  -0.0375  -0.0133  -0.0179   0.1933  -0.1572
  24 H1  :1s     0.1553  -0.1875   0.0056   0.3667  -0.0255  -0.2679   0.3608
  25 H1  :1s    -0.0423  -0.0140   0.0008   0.5299  -0.0063   0.0221  -0.0541
  26 H1  :1s     0.0137  -0.0692   0.0010  -0.3529   0.0116   0.0678  -0.1098
  27 H1  :2px   -0.1162  -0.3344  -0.0018   0.8833  -0.0255  -0.0824   0.2101
  28 H1  :2py    0.0145   0.0026   0.0233   0.0105  -0.0030  -0.0111   0.0160
  29 H1  :2pz   -0.2670  -0.0715  -0.0060  -0.1720   0.0124   0.2070  -0.2857
  30 H1  :2px   -0.4877   0.3068  -0.0176  -0.2806  -0.0086  -0.0197   0.3885
  31 H1  :2py   -0.0085  -0.0213  -0.8109  -0.0119  -0.4844   0.0438  -0.0196
  32 H1  :2pz    0.4763   0.2124  -0.0343   0.0862  -0.0461  -0.3169   0.2799
  33 H2  :1s     0.1006   0.2927  -0.0004  -0.0040   0.0195   0.2854  -0.0268
  34 H2  :1s    -0.1475   0.5209  -0.0120   0.3649   0.0026   0.2638   0.2188
  35 H2  :1s     0.2454  -0.6851   0.0152  -0.4263   0.0131  -0.1119  -0.6529
  36 H2  :2px    0.2429  -0.3730   0.0118   0.0310  -0.0134  -0.2850   0.0759
[...]
  70 H3  :2pz    0.0915   0.6591   0.1256  -0.1592   0.6991  -0.2478   0.6330
  71 H3  :2px   -0.0754  -0.0488  -0.0691  -0.0050   0.3965  -0.1717   0.1798
  72 H3  :2py   -0.2450   0.4302  -0.0156   0.0516   0.1111  -0.0909   0.1398
  73 H3  :2pz   -0.3242  -0.2858   0.0183   0.0326   0.0308  -0.0138   0.1862
  74 H4  :1s    -0.7208   0.4323   0.0191   0.0670   0.0587  -0.2310  -0.0199
  75 H4  :1s    -0.1146   0.1851  -0.0718  -0.2964   0.4299   0.2725   0.9367
  76 H4  :1s    -0.0406   0.4208  -0.0145  -0.1271  -0.0843  -0.0319   0.1117
  77 H4  :2px   -0.1261   0.2917   0.0101  -0.3170  -0.6861  -0.5546   0.5713
  78 H4  :2py   -0.1278  -0.2006   0.0659  -0.0393   0.0324  -0.1230   0.5315
  79 H4  :2pz   -0.0887  -0.6816   0.1445   0.1702   0.6971   0.2533   0.6795
  80 H4  :2px   -0.0228   0.0634  -0.0644   0.0046   0.3942   0.1815   0.1736
  81 H4  :2py    0.3653   0.3268   0.0043   0.0567  -0.1214  -0.1082  -0.1601
  82 H4  :2pz   -0.1888   0.3788   0.0158  -0.0287   0.0245   0.0183   0.1744

    Orbital        64       65       66       67       68       69       70
   1 O1  :1s    -0.0051  -0.2719   0.3052   0.0479   0.0054   0.3690  -0.4872
   2 O1  :1s    -0.0210  -1.1363   1.3714   0.2244   0.0233   1.6153  -2.1412
   3 O1  :1s     0.0467   2.2371  -1.6958  -0.3015  -0.0347  -2.0271   2.8374
   4 O1  :1s     0.0258   1.3616  -0.4649  -0.1135  -0.0110  -0.8436   1.0262
   5 O1  :2px    0.0006  -0.1214   0.8495   0.1669  -0.0056  -0.3938   0.6306
   6 O1  :2py   -0.0261  -0.0042  -0.0426  -0.0057  -0.0283  -0.0157   0.0132
   7 O1  :2pz    0.0035   0.0670   0.8787   0.1104  -0.0004   0.2981  -0.2229
   8 O1  :2px   -0.0027   0.4011  -1.8915  -0.3163   0.0046   3.5615   0.8441
   9 O1  :2py    0.1319   0.0366   0.0658  -0.0042   0.1746  -0.0563  -0.0429
  10 O1  :2pz   -0.0148  -0.6506  -1.3217   0.0983   0.0052   1.3021   0.9718
  11 O1  :2px   -0.0076  -0.2818  -0.3544  -0.0400   0.0004   1.0528   0.2399
  12 O1  :2py   -0.0266  -0.0024   0.0087   0.0004   0.0837  -0.0257  -0.0143
  13 O1  :2pz   -0.0012   0.0518  -0.1776  -0.0025   0.0024   0.5726   0.3412
  14 O1  :3d2-   0.0074   0.0029   0.0008  -0.0001   0.0008   0.0099   0.0054
  15 O1  :3d1-  -0.0042  -0.0026  -0.0007   0.0012  -0.0004   0.0132   0.0064
  16 O1  :3d0    0.0009   0.0411   0.0183  -0.0194   0.0004  -0.2214  -0.1467
  17 O1  :3d1+  -0.0009  -0.0611  -0.0154  -0.0037   0.0004  -0.1753  -0.0870
  18 O1  :3d2+  -0.0011  -0.0243  -0.0199   0.0086  -0.0003   0.1139   0.1214
  19 O1  :3d2-  -0.0524  -0.0604   0.0080   0.0077  -0.1311  -0.0579  -0.0242
  20 O1  :3d1-   0.0343   0.0431   0.0218  -0.0070   0.0466  -0.0703  -0.0326
  21 O1  :3d0   -0.0120  -0.5676  -0.4936   0.0052   0.0040   1.2425   0.7112
  22 O1  :3d1+   0.0195   1.1903  -0.1669  -0.1592  -0.0079   1.0822   0.3341
  23 O1  :3d2+   0.0082   0.2487   0.4412   0.1179   0.0025  -0.6986  -0.5523
  24 H1  :1s    -0.0045   0.1793  -1.3522  -0.3874   0.0026   3.3188   1.9138
  25 H1  :1s    -0.0353  -0.8891  -1.2187   0.3041   0.0021   3.9183  -0.6529
  26 H1  :1s    -0.0003   0.0000  -0.3592   0.0530  -0.0046   0.9438   0.5036
  27 H1  :2px    0.0012  -0.0082   0.2458   0.0276  -0.0053   0.0605   1.0463
  28 H1  :2py   -0.0812  -0.0526  -0.0177   0.0045  -0.1595   0.0125   0.0182
  29 H1  :2pz    0.0185   0.9948   0.2713  -0.1035  -0.0079  -0.1895  -0.3439
  30 H1  :2px   -0.0222  -0.4924  -0.0797   0.2753   0.0106   2.1643  -1.0755
  31 H1  :2py   -0.1427  -0.0367  -0.0050   0.0065  -0.1852  -0.0008  -0.0081
  32 H1  :2pz    0.0043   0.6661  -0.0240  -0.1351  -0.0119   0.2664   0.0200
  33 H2  :1s     0.0088   0.0193   0.7411  -0.1044   0.0031  -3.3848  -1.4526
  34 H2  :1s    -0.0078  -1.1772   1.8595   0.0878   0.0100  -2.6222  -0.8640
  35 H2  :1s    -0.0001  -0.0348   0.4222   0.0437   0.0032  -0.5356  -0.4117
  36 H2  :2px   -0.0183  -0.9732   0.4372   0.1862  -0.0001  -0.0634   0.0148
  37 H2  :2py   -0.0485  -0.0254  -0.0393  -0.0063  -0.0406  -0.0451  -0.0052
  38 H2  :2pz    0.0082   0.4044   0.7810   0.1348  -0.0025   0.8887   0.0983
  39 H2  :2px   -0.0010   0.2434  -0.6467   0.0095  -0.0032   0.9233   0.2647
  40 H2  :2py    0.0351  -0.0226   0.0550   0.0054   0.0223  -0.0481  -0.0263
  41 H2  :2pz    0.0040   0.4604  -1.1259  -0.1049  -0.0029   1.0166   0.5298
  42 O2  :1s    -0.0056  -0.2346  -0.0204  -0.7219   0.0018   0.1303  -0.2737
  43 O2  :1s    -0.0230  -0.9602  -0.0497  -3.1960   0.0070   0.5140  -1.0399
  44 O2  :1s     0.0429   1.8102   0.3771   3.8716  -0.0182  -1.0523   2.6779
  45 O2  :1s     0.0212   0.7774   0.6191   1.1579  -0.0028  -0.8096   1.0222
  46 O2  :2px    0.0129   0.0889  -0.3461   0.4435  -0.0001   0.1599  -0.2182
  47 O2  :2py    1.3977  -0.0373   0.0017  -0.0291  -0.1496  -0.0005   0.0079
  48 O2  :2pz    0.0639   0.1181  -0.1223   0.5549  -0.0058   0.0401  -0.1639
  49 O2  :2px   -0.0242  -0.0947   0.6072  -0.3403  -0.0255  -0.0435  -0.5875
  50 O2  :2py   -2.7306   0.0714   0.0038   0.0277  -3.6729   0.0008  -0.0008
  51 O2  :2pz   -0.1253  -0.3192   0.0368  -0.4951  -0.1570   0.1525  -0.4901
  52 O2  :2px   -0.0092  -0.3845   0.0699  -0.0533  -0.0056  -0.2348  -0.4147
  53 O2  :2py   -0.3932   0.0190   0.0067  -0.0022  -1.1298   0.0047   0.0067
  54 O2  :2pz   -0.0207  -0.1503  -0.1458   0.0535  -0.0486  -0.0087  -0.1889
  55 O2  :3d2-  -0.0189   0.0026  -0.0002   0.0002  -0.2322   0.0009   0.0001
  56 O2  :3d1-  -0.0247  -0.0024  -0.0020   0.0058  -0.2849   0.0019  -0.0057
  57 O2  :3d0   -0.0015   0.0179  -0.0090  -0.0444  -0.0217   0.0157  -0.0278
  58 O2  :3d1+  -0.0020  -0.0547  -0.0139   0.0172  -0.0115   0.0087  -0.0697
  59 O2  :3d2+  -0.0003   0.0424   0.0637  -0.0583  -0.0171  -0.0523   0.1471
  60 O2  :3d2-   0.5315   0.0192   0.0079  -0.0070   1.3578  -0.0034   0.0021
  61 O2  :3d1-   0.4770   0.0261   0.0124  -0.0158   1.4353  -0.0105   0.0091
  62 O2  :3d0    0.0306  -0.1489  -0.1628   0.0728   0.1089   0.1138  -0.0472
  63 O2  :3d1+   0.0183  -0.3639  -0.1046   0.0670   0.0700  -0.0787   0.3037
  64 O2  :3d2+   0.0157  -0.5596  -0.0303   0.2280   0.0851  -0.0158   0.0042
  65 H3  :1s    -1.2218  -0.2921  -0.1031   0.2342  -3.7238   0.2995  -0.9322
  66 H3  :1s    -2.2410  -0.5606  -0.1673  -0.9419  -2.5336   0.3606  -0.7507
  67 H3  :1s    -0.3499  -0.0968   0.0237  -0.1644  -0.3456  -0.0915  -0.1437
  68 H3  :2px    0.2059  -0.3958  -0.1875   0.3833  -0.3708   0.0106   0.0138
  69 H3  :2py    0.6542   0.2254  -0.0687   0.4203  -0.3947   0.0912  -0.4174
  70 H3  :2pz    0.1459  -0.1379  -0.1748   0.4245  -0.5329   0.0851  -0.1201
  71 H3  :2px   -0.4637  -0.0666   0.0031  -0.2977  -0.4397   0.1882  -0.1851
  72 H3  :2py   -1.2939  -0.1777   0.0506  -0.5185  -1.2898   0.1139  -0.2865
  73 H3  :2pz   -0.5218  -0.1851   0.0510  -0.3970  -0.5209   0.0654  -0.1975
  74 H4  :1s     1.2078  -0.3396  -0.1076   0.2333   3.7353   0.2798  -0.8758
  75 H4  :1s     2.2095  -0.6402  -0.1739  -0.9511   2.5425   0.3425  -0.7099
  76 H4  :1s     0.3456  -0.1151   0.0212  -0.1654   0.3474  -0.0911  -0.1420
  77 H4  :2px   -0.2132  -0.3968  -0.1884   0.3773   0.3647   0.0101   0.0166
  78 H4  :2py    0.6555  -0.2370   0.0799  -0.4627  -0.4518  -0.0930   0.4186
  79 H4  :2pz   -0.0991  -0.1469  -0.1646   0.3848   0.4960   0.0726  -0.0721
  80 H4  :2px    0.4361  -0.0791   0.0025  -0.2913   0.4209   0.1819  -0.1726
  81 H4  :2py   -1.3310   0.2428  -0.0480   0.5611  -1.3414  -0.1143   0.2791
  82 H4  :2pz    0.3976  -0.1851   0.0448  -0.3503   0.4080   0.0511  -0.1662

    Orbital        71       72       73       74       75       76       77
   1 O1  :1s    -0.8412  -0.0878   0.0001   0.0090  -0.0005   0.0983   0.0020
   2 O1  :1s    -3.1519  -0.4706   0.0002   0.0465  -0.0023   0.3558   0.0077
   3 O1  :1s     7.8669  -0.1521  -0.0047  -0.0129   0.0037  -0.9793  -0.0143
   4 O1  :1s     4.9392   0.0015  -0.0049  -0.0720   0.0033  -0.5860  -0.0043
   5 O1  :2px   -0.0323   0.4392   0.0017  -0.0487   0.0011   0.0534  -0.0019
   6 O1  :2py   -0.0156   0.0064  -0.0026  -0.0003  -0.0759   0.0042   0.0717
   7 O1  :2pz    0.3099  -0.0919   0.0001  -0.0082  -0.0035  -0.0825   0.0027
   8 O1  :2px   -1.1314  -0.1310  -0.0015  -0.0152  -0.0006   0.0052   0.0095
   9 O1  :2py   -0.0962   0.0233  -0.0437  -0.0071   0.2401   0.0078  -0.2309
  10 O1  :2pz    1.7915  -0.4398  -0.0056   0.1243   0.0107  -0.1390  -0.0140
  11 O1  :2px   -0.6574  -0.2084   0.0012   0.0672  -0.0032  -0.0876  -0.0004
  12 O1  :2py   -0.0348   0.0092   0.0443  -0.0016   0.3224  -0.0091  -0.1127
  13 O1  :2pz    0.6243  -0.2163  -0.0004   0.1202   0.0148   0.1919  -0.0042
  14 O1  :3d2-   0.0011   0.0020   0.1743   0.0050   0.2248  -0.0420  -1.1790
  15 O1  :3d1-   0.0305  -0.0076  -0.3724  -0.0285  -1.0966   0.0813  -0.2755
  16 O1  :3d0   -0.1455   0.0181  -0.0355   0.0162  -0.0960  -0.7689  -0.0285
  17 O1  :3d1+  -0.0703  -0.0037   0.0141  -0.0364   0.0151   0.9021  -0.0551
  18 O1  :3d2+  -0.3515   0.1167  -0.0184   0.0114  -0.0580  -0.1748  -0.0097
  19 O1  :3d2-   0.0002  -0.0126  -0.0220   0.0065  -0.1695   0.0252   0.7653
  20 O1  :3d1-  -0.0820   0.0202   0.1889   0.0101   0.6262  -0.0361   0.1485
  21 O1  :3d0    0.4978  -0.1123   0.0158   0.0303   0.0548   0.3850   0.0160
  22 O1  :3d1+   0.1200   0.2095  -0.0012  -0.0997  -0.0088  -0.5632   0.0370
  23 O1  :3d2+   0.7581  -0.1748   0.0099   0.0139   0.0330  -0.0128   0.0005
  24 H1  :1s    -2.6013   0.5843  -0.0009  -0.1392   0.0024   0.3035   0.0123
  25 H1  :1s    -2.5006  -0.3791   0.0049   0.1340  -0.0043  -0.0088   0.0094
  26 H1  :1s    -0.6963  -0.2628  -0.0064   0.2713  -0.0007   0.3855   0.0056
  27 H1  :2px   -0.7021   0.7443   0.0018  -0.0910   0.0014   0.1570   0.0010
  28 H1  :2py    0.0069  -0.0032   0.1117   0.0081   0.0205  -0.0062  -0.1228
  29 H1  :2pz   -0.1870   0.1027   0.0085  -0.0798   0.0018   0.1415  -0.0052
  30 H1  :2px   -1.5552  -0.0317   0.0159  -0.1269   0.0005  -0.2138  -0.0121
  31 H1  :2py   -0.0213  -0.0221   0.0491   0.0141  -0.2782   0.0206   0.6636
  32 H1  :2pz    0.3158   0.3822   0.0083  -0.2368  -0.0100  -0.4636   0.0328
  33 H2  :1s    -2.8589   0.4616   0.0031  -0.0591  -0.0007   0.4187   0.0054
  34 H2  :1s    -1.4632   0.0125  -0.0110   0.1947  -0.0017   0.5442  -0.0023
  35 H2  :1s    -0.0145   0.1398   0.0017  -0.1105   0.0007  -0.1477  -0.0026
  36 H2  :2px    0.5880  -0.2038  -0.0025   0.0759  -0.0013  -0.1730  -0.0029
  37 H2  :2py   -0.0323   0.0029   0.0461   0.0052   0.1279   0.0017   0.1140
  38 H2  :2pz    0.6752  -0.0925   0.0032  -0.0247   0.0070  -0.0525   0.0050
  39 H2  :2px    0.2756   0.1027   0.0075  -0.1617   0.0030   0.0519   0.0036
  40 H2  :2py   -0.0330   0.0034  -0.0955  -0.0063  -0.3619   0.0208  -0.2650
  41 H2  :2pz    0.6802  -0.0328  -0.0026  -0.0480  -0.0177  -0.3941  -0.0151
  42 O2  :1s     0.1958   0.6670  -0.0011   0.0195  -0.0002  -0.0102   0.0001
  43 O2  :1s     0.7512   2.3994  -0.0051   0.0947  -0.0009  -0.0388   0.0006
  44 O2  :1s    -1.7410  -6.6640   0.0048  -0.0656   0.0005   0.1395   0.0006
  45 O2  :1s    -1.0640  -4.1731   0.0149  -0.1228  -0.0010  -0.2018  -0.0097
  46 O2  :2px    0.0919   0.0153  -0.0009   0.0101  -0.0003  -0.0160   0.0023
  47 O2  :2py   -0.0025  -0.0130   0.0011   0.0012  -0.0049   0.0018   0.0170
  48 O2  :2pz    0.0350   0.2612   0.0005  -0.0199  -0.0001  -0.0332   0.0016
  49 O2  :2px    0.0836   1.7299   0.0077  -0.1207   0.0008  -0.0331  -0.0050
  50 O2  :2py   -0.0207  -0.0814   0.1016   0.0074  -0.0762  -0.0046   0.0702
  51 O2  :2pz    0.3025   1.5254   0.0081  -0.0600  -0.0027   0.0662   0.0015
  52 O2  :2px   -0.0653   0.4428   0.0125  -0.3139   0.0005  -0.0424   0.0003
  53 O2  :2py   -0.0073  -0.0274  -0.0435   0.0086  -0.0021  -0.0022  -0.1516
  54 O2  :2pz    0.0865   0.5351   0.0083  -0.2327   0.0012   0.0642  -0.0067
  55 O2  :3d2-  -0.0019  -0.0077   0.8412   0.0782  -0.3109   0.0002   0.0694
  56 O2  :3d1-   0.0020   0.0209  -0.7550   0.0503   0.2743   0.0072  -0.0786
  57 O2  :3d0   -0.0170  -0.2495  -0.0131  -0.7974   0.0254  -0.0213  -0.0116
  58 O2  :3d1+   0.0591   0.2573   0.0636  -0.8294  -0.0047  -0.0313   0.0114
  59 O2  :3d2+  -0.0431  -0.1036  -0.0113  -0.3590   0.0106  -0.0651   0.0118
  60 O2  :3d2-   0.0092   0.0340  -0.5470  -0.0506   0.2417  -0.0006  -0.1441
  61 O2  :3d1-  -0.0042  -0.0317   0.4155  -0.0267  -0.1479  -0.0031   0.0385
  62 O2  :3d0    0.0497   0.1584   0.0066   0.4476  -0.0139   0.0043   0.0079
  63 O2  :3d1+  -0.1651  -0.9007  -0.0419   0.5448   0.0049   0.0535  -0.0122
  64 O2  :3d2+   0.0800   0.5878   0.0078   0.1587  -0.0047   0.0243  -0.0108
  65 H3  :1s     0.5161   2.8382   0.1064  -0.1192  -0.0577  -0.0200   0.0790
  66 H3  :1s     0.3363   1.5588   0.0991   0.0673  -0.1995  -0.0036   0.2163
  67 H3  :1s     0.1331   0.2677  -0.0156  -0.0633   0.0751  -0.0566  -0.0959
  68 H3  :2px    0.0131   0.1436   0.0794  -0.0480  -0.0232   0.0022  -0.0200
  69 H3  :2py    0.1473   0.8159   0.0119   0.0367  -0.0146  -0.0113   0.0229
  70 H3  :2pz    0.0464   0.2020  -0.0497  -0.1228   0.0095  -0.0256   0.0259
  71 H3  :2px    0.1119   0.3348  -0.1988   0.1374   0.0505  -0.0488   0.0804
  72 H3  :2py    0.1222   0.5972   0.0854  -0.1201  -0.0871  -0.0269   0.1413
  73 H3  :2pz    0.0798   0.4121   0.2029   0.2377  -0.1013  -0.0202   0.0377
  74 H4  :1s     0.5266   2.8419  -0.0940  -0.1276   0.0589  -0.0175  -0.0782
  75 H4  :1s     0.3585   1.5705  -0.1114   0.0581   0.2005   0.0008  -0.2206
  76 H4  :1s     0.1356   0.2684   0.0189  -0.0613  -0.0756  -0.0560   0.0955
  77 H4  :2px    0.0104   0.1255  -0.0761  -0.0544   0.0234   0.0019   0.0236
  78 H4  :2py   -0.1532  -0.8351   0.0114  -0.0237  -0.0139   0.0132   0.0252
  79 H4  :2pz    0.0357   0.1332   0.0626  -0.1213  -0.0093  -0.0242  -0.0227
  80 H4  :2px    0.1130   0.3279   0.1916   0.1548  -0.0532  -0.0485  -0.0901
  81 H4  :2py   -0.1399  -0.6422   0.0911   0.1063  -0.0969   0.0254   0.1444
  82 H4  :2pz    0.0708   0.3588  -0.2180   0.2299   0.0903  -0.0159  -0.0265

    Orbital        78       79       80       81       82
   1 O1  :1s     0.1218   0.0357  -0.3501   0.0006   0.1372
   2 O1  :1s     0.4759   0.1343  -1.1535   0.0027   0.4674
   3 O1  :1s    -0.7652  -0.3911   4.5084  -0.0007  -1.7755
   4 O1  :1s    -0.3967  -0.3105   1.6692  -0.0013  -0.7845
   5 O1  :2px   -0.1499  -0.0037  -0.1233  -0.0004   0.4775
   6 O1  :2py   -0.0005   0.0017  -0.0223   0.0263  -0.0029
   7 O1  :2pz   -0.0080  -0.0508   0.4433   0.0027   0.0858
   8 O1  :2px    0.5443  -0.0847  -0.1950   0.0091   2.0494
   9 O1  :2py    0.0061   0.0013  -0.0673  -0.1043  -0.0318
  10 O1  :2pz   -0.1018   0.0332   1.2462   0.0005   0.8265
  11 O1  :2px    0.0986  -0.0006  -0.1614   0.0035   0.6381
  12 O1  :2py    0.0013   0.0018  -0.0091  -0.0346  -0.0121
  13 O1  :2pz    0.0228  -0.0134   0.1551   0.0010   0.2971
  14 O1  :3d2-   0.0162   0.0021  -0.0288  -0.0247  -0.0348
  15 O1  :3d1-   0.0143   0.0070  -0.0859  -0.0027  -0.0327
  16 O1  :3d0    0.0070  -0.0519   0.4943   0.0039   0.8728
  17 O1  :3d1+  -0.0062   0.0016   0.6856   0.0019   0.5535
  18 O1  :3d2+  -0.2645  -0.0406   0.8809  -0.0013  -0.8259
  19 O1  :3d2-  -0.0127   0.0035   0.0117   0.0765  -0.0100
  20 O1  :3d1-  -0.0042  -0.0037  -0.0035  -0.0064  -0.0137
  21 O1  :3d0    0.0488   0.0169   0.1894   0.0006   0.1460
  22 O1  :3d1+   0.0635  -0.1231  -0.2341   0.0032   0.1796
  23 O1  :3d2+  -0.0244   0.0337  -0.2853  -0.0015   0.0349
  24 H1  :1s     0.6997  -0.1008  -1.3183   0.0080   2.9103
  25 H1  :1s     0.6593   0.1390  -0.9832   0.0108   2.0643
  26 H1  :1s     0.2844   0.1822  -0.2084   0.0043   0.4063
  27 H1  :2px   -0.1028  -0.0011  -0.6181  -0.0004   1.1113
  28 H1  :2py    0.0034   0.0017  -0.0032   0.0464   0.0131
  29 H1  :2pz    0.0178  -0.0400   0.0360   0.0012  -0.1972
  30 H1  :2px   -0.2484  -0.0209  -1.6974   0.0038   2.2408
  31 H1  :2py   -0.0052   0.0088   0.0153   0.1398   0.0133
  32 H1  :2pz    0.0445  -0.2904  -0.3177   0.0053  -0.1586
  33 H2  :1s     0.1268   0.1243  -2.6951  -0.0117  -1.9125
  34 H2  :1s    -0.1778   0.4325   0.7123  -0.0063  -1.7566
  35 H2  :1s    -0.1202  -0.0698  -0.0457  -0.0026  -0.2210
  36 H2  :2px   -0.0704   0.0209   0.4531   0.0020   0.2025
  37 H2  :2py    0.0003   0.0038  -0.0441  -0.0010  -0.0286
  38 H2  :2pz   -0.0236  -0.0821   0.9133   0.0036   0.5751
  39 H2  :2px    0.0736  -0.1497   0.0399   0.0014   0.4193
  40 H2  :2py    0.0011   0.0068  -0.0132   0.0173  -0.0437
  41 H2  :2pz    0.0207  -0.1265   0.2413   0.0045   0.8956
  42 O2  :1s    -0.0933   0.3034  -0.0016  -0.0008  -0.0115
  43 O2  :1s    -0.3202   0.9688   0.0172  -0.0027  -0.0856
  44 O2  :1s     1.0246  -3.9475   0.2284   0.0100  -0.1577
  45 O2  :1s    -0.1663  -1.9482  -0.0185   0.0052  -0.1293
  46 O2  :2px    0.1033   0.2927   0.1386  -0.0034  -0.1478
  47 O2  :2py    0.0000  -0.0163   0.0008  -0.4644   0.0028
  48 O2  :2pz    0.0029   0.3075  -0.0053  -0.0208  -0.0100
  49 O2  :2px   -0.4778   0.7838  -0.5604  -0.0208   0.5969
  50 O2  :2py    0.0253  -0.0530   0.0088  -2.1381  -0.0035
  51 O2  :2pz   -0.3229   0.9952  -0.0927  -0.0963   0.2165
  52 O2  :2px    0.0407   0.0331   0.0753  -0.0066   0.0049
  53 O2  :2py    0.0076  -0.0150  -0.0046  -0.6162   0.0024
  54 O2  :2pz   -0.1148   0.3442   0.0896  -0.0290   0.0220
  55 O2  :3d2-  -0.0234   0.0199  -0.0062   0.8917   0.0031
  56 O2  :3d1-   0.0118  -0.0623  -0.0021   0.9824  -0.0055
  57 O2  :3d0   -0.7692   0.4124  -0.1131   0.0731   0.1141
  58 O2  :3d1+   0.4042  -0.7659   0.0292   0.0479  -0.0830
  59 O2  :3d2+   0.7920   0.8662   0.1917   0.0583  -0.1383
  60 O2  :3d2-   0.0076  -0.0002   0.0013   0.1415  -0.0065
  61 O2  :3d1-  -0.0050   0.0149   0.0023   0.2362  -0.0053
  62 O2  :3d0    0.5214  -0.1160   0.1217   0.0197  -0.1224
  63 O2  :3d1+  -0.1292   0.0910   0.0572   0.0088   0.0146
  64 O2  :3d2+  -0.6967  -0.1355  -0.2731   0.0111   0.3110
  65 H3  :1s    -0.5086   2.0916  -0.1861  -2.5366   0.3394
  66 H3  :1s    -0.0032   0.3992  -0.2073  -1.0144   0.1609
  67 H3  :1s    -0.0310   0.0534   0.0378  -0.1826  -0.0351
  68 H3  :2px    0.0744   0.3269   0.0477  -0.3865   0.0167
  69 H3  :2py   -0.1176   0.6736  -0.0402  -0.6439   0.0510
  70 H3  :2pz   -0.0522   0.3844  -0.0141  -0.4387   0.0299
  71 H3  :2px   -0.3168   0.1829  -0.2300  -0.3544   0.1431
  72 H3  :2py   -0.0698   0.3908  -0.0935  -0.5675   0.0881
  73 H3  :2pz    0.0363   0.1265  -0.0886  -0.4462   0.0478
  74 H4  :1s    -0.5247   2.0994  -0.1936   2.5283   0.3206
  75 H4  :1s    -0.0238   0.4013  -0.2050   1.0081   0.1435
  76 H4  :1s    -0.0341   0.0519   0.0384   0.1808  -0.0358
  77 H4  :2px    0.0755   0.3159   0.0469   0.3752   0.0131
  78 H4  :2py    0.1239  -0.7113   0.0432  -0.6833  -0.0482
  79 H4  :2pz   -0.0433   0.3244  -0.0117   0.3797   0.0223
  80 H4  :2px   -0.3156   0.1774  -0.2304   0.3428   0.1371
  81 H4  :2py    0.0811  -0.4060   0.1026  -0.6078  -0.0864
  82 H4  :2pz    0.0347   0.0930  -0.0806   0.3942   0.0351

 "NEWORB " orbitals punched.


  Total CPU  time used in SIRIUS :   1.40 seconds
  Total wall time used in SIRIUS :   1.41 seconds

 
     Date and time (Linux)  : Tue Sep 28 00:46:51 2021
     Host name              : xeon                                    


                     .---------------------------------------.
                     | End of Wave Function Section (SIRIUS) |
                     `---------------------------------------'

  Total CPU  time used in DALTON:   1.48 seconds
  Total wall time used in DALTON:   1.49 seconds

 
     Date and time (Linux)  : Tue Sep 28 00:46:51 2021
     Host name              : xeon                                    
  

 +---------------------------------------------------------+ 
 | List of selected calculated molecular properties (a.u.) | 
 +---------------------------------------------------------+ 

  Properties are read from unit number            4

 SCF/DFT    properties :
 #  1 1 ENERGY   Ground state Energy =    -152.0882627358

 THE_END   
